<?xml version="1.0"?>
<VTKFile type="ImageData" version="0.1" byte_order="LittleEndian">
  <ImageData WholeExtent="0 49 0 39 0 0" Origin="0.0 0.0 0.0" Spacing="1.0 1.0 1.0">
    <Piece Extent="0 49 0 39 0 0">
      <PointData Scalars="wave">
        <DataArray type="Float64" Name="wave" NumberOfComponents="1" format="ascii">
          0 0.1278771617 0.2536545839 0.3752670049 0.490717552 0.5981105305 0.6956825506 0.7818314825 0.855142763 0.914412623 0.958667853 0.9871817834 0.9994862162 0.9953791129 0.9749279122 0.938468422 0.8865993064 0.8201722546 0.7402779971 0.6482283953 0.5455349012 0.4338837391 0.315108218 0.1911586287 0.06407021998 -0.06407021998 -0.1911586287 -0.315108218 -0.4338837391 -0.5455349012 -0.6482283953 -0.7402779971 -0.8201722546 -0.8865993064 -0.938468422 -0.9749279122 -0.9953791129 -0.9994862162 -0.9871817834 -0.958667853 -0.914412623 -0.855142763 -0.7818314825 -0.6956825506 -0.5981105305 -0.490717552 -0.3752670049 -0.2536545839 -0.1278771617 -1.13310778e-15 
          0 0.126221186 0.2503698237 0.3704073957 0.4843628886 0.5903651562 0.6866736443 0.7717069701 0.8440688888 0.9025712197 0.9462533561 0.9743980386 0.9865431322 0.9824892149 0.9623028518 0.9263155025 0.8751180782 0.8095512393 0.7306915914 0.6398340078 0.5384703675 0.4282650587 0.3110276494 0.1886831747 0.06324052746 -0.06324052746 -0.1886831747 -0.3110276494 -0.4282650587 -0.5384703675 -0.6398340078 -0.7306915914 -0.8095512393 -0.8751180782 -0.9263155025 -0.9623028518 -0.9824892149 -0.9865431322 -0.9743980386 -0.9462533561 -0.9025712197 -0.8440688888 -0.7717069701 -0.6866736443 -0.5903651562 -0.4843628886 -0.3704073957 -0.2503698237 -0.126221186 -1.118434331e-15 
          0 0.121296148 0.2406006165 0.3559544296 0.4654634808 0.5673296345 0.6598802513 0.7415956526 0.8111340738 0.8673536959 0.9093313943 0.9363778964 0.9480490993 0.9441533622 0.924754653 0.8901714979 0.8409717515 0.7779632722 0.7021806574 0.6148682557 0.5174597342 0.4115545381 0.298891628 0.1813209255 0.0607729385 -0.0607729385 -0.1813209255 -0.298891628 -0.4115545381 -0.5174597342 -0.6148682557 -0.7021806574 -0.7779632722 -0.8409717515 -0.8901714979 -0.924754653 -0.9441533622 -0.9480490993 -0.9363778964 -0.9093313943 -0.8673536959 -0.8111340738 -0.7415956526 -0.6598802513 -0.5673296345 -0.4654634808 -0.3559544296 -0.2406006165 -0.121296148 -1.074794022e-15 
          0 0.1132296034 0.2245999798 0.3322824307 0.4345088133 0.5296005732 0.6159963064 0.6922773972 0.7571913123 0.809672167 0.8488582271 0.8741060585 0.8850010927 0.8813644334 0.8632557944 0.8309725192 0.7850446982 0.7262264649 0.6554836132 0.5739777386 0.4830471655 0.3841849712 0.2790144704 0.1692625596 0.05673136235 -0.05673136235 -0.1692625596 -0.2790144704 -0.3841849712 -0.4830471655 -0.5739777386 -0.6554836132 -0.7262264649 -0.7850446982 -0.8309725192 -0.8632557944 -0.8813644334 -0.8850010927 -0.8741060585 -0.8488582271 -0.809672167 -0.7571913123 -0.6922773972 -0.6159963064 -0.5296005732 -0.4345088133 -0.3322824307 -0.2245999798 -0.1132296034 -1.003317111e-15 
          0 0.1022304715 0.2027823215 0.3000044914 0.3923005958 0.4781551353 0.5561583807 0.6250295209 0.6836376936 0.7310205542 0.7664000776 0.7891953329 0.7990320227 0.7957486287 0.7793990642 0.7502517887 0.7087853995 0.6556807737 0.5918098877 0.5182214997 0.436123929 0.3468652154 0.2519109846 0.1528203824 0.05122047371 -0.05122047371 -0.1528203824 -0.2519109846 -0.3468652154 -0.436123929 -0.5182214997 -0.5918098877 -0.6556807737 -0.7087853995 -0.7502517887 -0.7793990642 -0.7957486287 -0.7990320227 -0.7891953329 -0.7664000776 -0.7310205542 -0.6836376936 -0.6250295209 -0.5561583807 -0.4781551353 -0.3923005958 -0.3000044914 -0.2027823215 -0.1022304715 -9.058548145e-16 
          0 0.08858362416 0.1757127077 0.2599565933 0.339931999 0.4143257306 0.4819162451 0.5415937082 0.5923782177 0.6334358931 0.6640925687 0.6838448627 0.692368443 0.6895233525 0.6753563077 0.650099931 0.6141689313 0.5681532948 0.5128085969 0.4490435961 0.3779053118 0.3005618327 0.2182831366 0.1324202375 0.04438300172 -0.04438300172 -0.1324202375 -0.2182831366 -0.3005618327 -0.3779053118 -0.4490435961 -0.5128085969 -0.5681532948 -0.6141689313 -0.650099931 -0.6753563077 -0.6895233525 -0.692368443 -0.6838448627 -0.6640925687 -0.6334358931 -0.5923782177 -0.5415937082 -0.4819162451 -0.4143257306 -0.339931999 -0.2599565933 -0.1757127077 -0.08858362416 -7.84931354e-16 
          0 0.07264250747 0.144092227 0.2131759561 0.2787593419 0.339765507 0.3951927319 0.4441309031 0.4857764571 0.5194455751 0.5445854111 0.5607831698 0.5677728843 0.5654397837 0.5538221775 0.5331108265 0.5036458104 0.4659109441 0.4205258329 0.3682356992 0.3098991455 0.2464740564 0.1790018701 0.108590478 0.03639603329 -0.03639603329 -0.108590478 -0.1790018701 -0.2464740564 -0.3098991455 -0.3682356992 -0.4205258329 -0.4659109441 -0.5036458104 -0.5331108265 -0.5538221775 -0.5654397837 -0.5677728843 -0.5607831698 -0.5445854111 -0.5194455751 -0.4857764571 -0.4441309031 -0.3951927319 -0.339765507 -0.2787593419 -0.2131759561 -0.144092227 -0.07264250747 -6.436785838e-16 
          0 0.05481998799 0.1087398333 0.1608741735 0.2103669643 0.2564055353 0.2982339345 0.3351653408 0.3665933414 0.3920018895 0.4109737775 0.4231974873 0.4284723061 0.4267116215 0.4179443439 0.4023144316 0.3800785276 0.3516017446 0.3173516707 0.2778906912 0.2338667541 0.1860027315 0.1350845491 0.08194828217 0.02746642671 -0.02746642671 -0.08194828217 -0.1350845491 -0.1860027315 -0.2338667541 -0.2778906912 -0.3173516707 -0.3516017446 -0.3800785276 -0.4023144316 -0.4179443439 -0.4267116215 -0.4284723061 -0.4231974873 -0.4109737775 -0.3920018895 -0.3665933414 -0.3351653408 -0.2982339345 -0.2564055353 -0.2103669643 -0.1608741735 -0.1087398333 -0.05481998799 -4.857548764e-16 
          0 0.03557765962 0.07057113505 0.1044058344 0.1365261928 0.1664047949 0.1935510349 0.2175191723 0.2379156508 0.2544055609 0.2667181388 0.2746512122 0.2780745203 0.2769318524 0.2712419712 0.2610983043 0.2466674105 0.2281862446 0.2059582669 0.1803484602 0.1517773367 0.1207140335 0.08766860928 0.05318366888 0.01782545412 -0.01782545412 -0.05318366888 -0.08766860928 -0.1207140335 -0.1517773367 -0.1803484602 -0.2059582669 -0.2281862446 -0.2466674105 -0.2610983043 -0.2712419712 -0.2769318524 -0.2780745203 -0.2746512122 -0.2667181388 -0.2544055609 -0.2379156508 -0.2175191723 -0.1935510349 -0.1664047949 -0.1365261928 -0.1044058344 -0.07057113505 -0.03557765962 -3.152503728e-16 
          0 0.01541388855 0.03057468148 0.04523343898 0.05914946466 0.07209425777 0.08385526516 0.09423937142 0.1030760698 0.110220262 0.1155546405 0.118991615 0.1204747505 0.1199796939 0.117514574 0.1131198681 0.1068677371 0.09886084081 0.08923065223 0.07813529882 0.06575696596 0.05229890553 0.03798209852 0.02304162651 0.00772281162 -0.00772281162 -0.02304162651 -0.03798209852 -0.05229890553 -0.06575696596 -0.07813529882 -0.08923065223 -0.09886084081 -0.1068677371 -0.1131198681 -0.117514574 -0.1199796939 -0.1204747505 -0.118991615 -0.1155546405 -0.110220262 -0.1030760698 -0.09423937142 -0.08385526516 -0.07209425777 -0.05914946466 -0.04523343898 -0.03057468148 -0.01541388855 -1.365810501e-16 
          -0 -0.005149094134 -0.01021364028 -0.01511047874 -0.01975920356 -0.0240834828 -0.02801231192 -0.03148117965 -0.03443312728 -0.03681968391 -0.03860166236 -0.03974980257 -0.04024525212 -0.04007987575 -0.03925638892 -0.03778831328 -0.03569975457 -0.03302500688 -0.02980798949 -0.02610152574 -0.02196647566 -0.01747073665 -0.01268812863 -0.007697181895 -0.002579847641 0.002579847641 0.007697181895 0.01268812863 0.01747073665 0.02196647566 0.02610152574 0.02980798949 0.03302500688 0.03569975457 0.03778831328 0.03925638892 0.04007987575 0.04024525212 0.03974980257 0.03860166236 0.03681968391 0.03443312728 0.03148117965 0.02801231192 0.0240834828 0.01975920356 0.01511047874 0.01021364028 0.005149094134 4.562564999e-17 
          -0 -0.02557871798 -0.05073743413 -0.075063043 -0.09815611879 -0.1196374738 -0.1391543848 -0.1563863847 -0.1710505244 -0.1829060193 -0.1917582024 -0.1974617211 -0.1999229238 -0.1991013976 -0.195010632 -0.1877177972 -0.1773426414 -0.1640555242 -0.14807462 -0.1296623345 -0.1091209971 -0.08678789594 -0.06302973992 -0.03823663733 -0.0128156902 0.0128156902 0.03823663733 0.06302973992 0.08678789594 0.1091209971 0.1296623345 0.14807462 0.1640555242 0.1773426414 0.1877177972 0.195010632 0.1991013976 0.1999229238 0.1974617211 0.1917582024 0.1829060193 0.1710505244 0.1563863847 0.1391543848 0.1196374738 0.09815611879 0.075063043 0.05073743413 0.02557871798 2.266506697e-16 
          -0 -0.04534586647 -0.08994715508 -0.1330715139 -0.1740108421 -0.2120929171 -0.2466924323 -0.2772412645 -0.3032378029 -0.3242551849 -0.3399483057 -0.3500594848 -0.3544226968 -0.3529662979 -0.3457142022 -0.3327854888 -0.3143924469 -0.2908370897 -0.2625061955 -0.2298649569 -0.193449342 -0.1538572943 -0.1117389141 -0.06778578394 -0.02271961312 0.02271961312 0.06778578394 0.1117389141 0.1538572943 0.193449342 0.2298649569 0.2625061955 0.2908370897 0.3143924469 0.3327854888 0.3457142022 0.3529662979 0.3544226968 0.3500594848 0.3399483057 0.3242551849 0.3032378029 0.2772412645 0.2466924323 0.2120929171 0.1740108421 0.1330715139 0.08994715508 0.04534586647 4.018055562e-16 
          -0 -0.06393858084 -0.126827292 -0.1876335024 -0.245358776 -0.2990552652 -0.3478412753 -0.3909157412 -0.4275713815 -0.4572063115 -0.4793339265 -0.4935908917 -0.4997431081 -0.4976895565 -0.4874639561 -0.469234211 -0.4432996532 -0.4100861273 -0.3701389985 -0.3241141977 -0.2727674506 -0.2169418696 -0.157554109 -0.09557931435 -0.03203510999 0.03203510999 0.09557931435 0.157554109 0.2169418696 0.2727674506 0.3241141977 0.3701389985 0.4100861273 0.4432996532 0.469234211 0.4874639561 0.4976895565 0.4997431081 0.4935908917 0.4793339265 0.4572063115 0.4275713815 0.3909157412 0.3478412753 0.2990552652 0.245358776 0.1876335024 0.126827292 0.06393858084 5.665538898e-16 
          -0 -0.08087531955 -0.1604226686 -0.2373358818 -0.3103520465 -0.3782722391 -0.439981212 -0.4944657056 -0.5408310859 -0.5783160348 -0.6063050504 -0.6243385538 -0.6321204354 -0.6295229169 -0.6165886496 -0.5935300137 -0.5607256313 -0.5187141496 -0.4681853959 -0.4099690509 -0.3450210255 -0.2744077644 -0.1992887353 -0.1208973907 -0.04052091434 0.04052091434 0.1208973907 0.1992887353 0.2744077644 0.3450210255 0.4099690509 0.4681853959 0.5187141496 0.5607256313 0.5935300137 0.6165886496 0.6295229169 0.6321204354 0.6243385538 0.6063050504 0.5783160348 0.5408310859 0.4944657056 0.439981212 0.3782722391 0.3103520465 0.2373358818 0.1604226686 0.08087531955 7.166287752e-16 
          -0 -0.09571742997 -0.1898631824 -0.2808913866 -0.367307362 -0.4476921607 -0.5207258664 -0.5852092679 -0.6400835493 -0.6844476766 -0.7175731919 -0.7389161753 -0.7481261755 -0.7450519645 -0.729744021 -0.7024537007 -0.6636291101 -0.6139077479 -0.5541060374 -0.4852059212 -0.4083387371 -0.3247666422 -0.235861888 -0.1430842882 -0.04795724829 0.04795724829 0.1430842882 0.235861888 0.3247666422 0.4083387371 0.4852059212 0.5541060374 0.6139077479 0.6636291101 0.7024537007 0.729744021 0.7450519645 0.7481261755 0.7389161753 0.7175731919 0.6844476766 0.6400835493 0.5852092679 0.5207258664 0.4476921607 0.367307362 0.2808913866 0.1898631824 0.09571742997 8.481433518e-16 
          -0 -0.1080805092 -0.2143863395 -0.317171952 -0.4147496098 -0.5055170904 -0.5879839945 -0.6607962175 -0.722758185 -0.7728524831 -0.8102565647 -0.834356256 -0.8447558406 -0.8412845576 -0.8239994055 -0.7931842059 -0.7493449436 -0.693201458 -0.6256756237 -0.5478762129 -0.4610806898 -0.3667142346 -0.2663263417 -0.1615653777 -0.05415151471 0.05415151471 0.1615653777 0.2663263417 0.3667142346 0.4610806898 0.5478762129 0.6256756237 0.693201458 0.7493449436 0.7931842059 0.8239994055 0.8412845576 0.8447558406 0.834356256 0.8102565647 0.7728524831 0.722758185 0.6607962175 0.5879839945 0.5055170904 0.4147496098 0.317171952 0.2143863395 0.1080805092 9.576914611e-16 
          -0 -0.1176443601 -0.233357003 -0.3452379304 -0.4514500605 -0.5502493931 -0.6400136459 -0.7192688923 -0.7867137634 -0.8412408162 -0.8819547181 -0.9081869479 -0.9195067731 -0.9157283226 -0.8969136383 -0.8633716568 -0.8156531366 -0.7545416145 -0.6810405399 -0.5963567985 -0.5018808949 -0.3991641209 -0.2898930831 -0.1758620089 -0.05894328533 0.05894328533 0.1758620089 0.2898930831 0.3991641209 0.5018808949 0.5963567985 0.6810405399 0.7545416145 0.8156531366 0.8633716568 0.8969136383 0.9157283226 0.9195067731 0.9081869479 0.8819547181 0.8412408162 0.7867137634 0.7192688923 0.6400136459 0.5502493931 0.4514500605 0.3452379304 0.233357003 0.1176443601 1.042435865e-15 
          -0 -0.1241612838 -0.2462838427 -0.3643624277 -0.4764581918 -0.5807305255 -0.67546728 -0.7591128805 -0.8302938685 -0.8878414541 -0.9308107075 -0.9584960749 -0.9704429633 -0.966455205 -0.9465982789 -0.9111982353 -0.8608363419 -0.7963395395 -0.7187668639 -0.6293920562 -0.5296826485 -0.4212758662 -0.3059517459 -0.1856039064 -0.06220845583 0.06220845583 0.1856039064 0.3059517459 0.4212758662 0.5296826485 0.6293920562 0.7187668639 0.7963395395 0.8608363419 0.9111982353 0.9465982789 0.966455205 0.9704429633 0.9584960749 0.9308107075 0.8878414541 0.8302938685 0.7591128805 0.67546728 0.5807305255 0.4764581918 0.3643624277 0.2462838427 0.1241612838 1.100181727e-15 
          -0 -0.1274624955 -0.2528320603 -0.3740501296 -0.4891263062 -0.5961710423 -0.6934266665 -0.7792962439 -0.8523697985 -0.9114474646 -0.9555591886 -0.9839806571 -0.9962451904 -0.9921514052 -0.9717665214 -0.9354252581 -0.883724338 -0.8175126887 -0.7378775036 -0.6461263904 -0.5437658996 -0.4324767878 -0.3140864192 -0.1905387602 -0.06386246 0.06386246 0.1905387602 0.3140864192 0.4324767878 0.5437658996 0.6461263904 0.7378775036 0.8175126887 0.883724338 0.9354252581 0.9717665214 0.9921514052 0.9962451904 0.9839806571 0.9555591886 0.9114474646 0.8523697985 0.7792962439 0.6934266665 0.5961710423 0.4891263062 0.3740501296 0.2528320603 0.1274624955 1.12943346e-15 
          -0 -0.1274624955 -0.2528320603 -0.3740501296 -0.4891263062 -0.5961710423 -0.6934266665 -0.7792962439 -0.8523697985 -0.9114474646 -0.9555591886 -0.9839806571 -0.9962451904 -0.9921514052 -0.9717665214 -0.9354252581 -0.883724338 -0.8175126887 -0.7378775036 -0.6461263904 -0.5437658996 -0.4324767878 -0.3140864192 -0.1905387602 -0.06386246 0.06386246 0.1905387602 0.3140864192 0.4324767878 0.5437658996 0.6461263904 0.7378775036 0.8175126887 0.883724338 0.9354252581 0.9717665214 0.9921514052 0.9962451904 0.9839806571 0.9555591886 0.9114474646 0.8523697985 0.7792962439 0.6934266665 0.5961710423 0.4891263062 0.3740501296 0.2528320603 0.1274624955 1.12943346e-15 
          -0 -0.1241612838 -0.2462838427 -0.3643624277 -0.4764581918 -0.5807305255 -0.67546728 -0.7591128805 -0.8302938685 -0.8878414541 -0.9308107075 -0.9584960749 -0.9704429633 -0.966455205 -0.9465982789 -0.9111982353 -0.8608363419 -0.7963395395 -0.7187668639 -0.6293920562 -0.5296826485 -0.4212758662 -0.3059517459 -0.1856039064 -0.06220845583 0.06220845583 0.1856039064 0.3059517459 0.4212758662 0.5296826485 0.6293920562 0.7187668639 0.7963395395 0.8608363419 0.9111982353 0.9465982789 0.966455205 0.9704429633 0.9584960749 0.9308107075 0.8878414541 0.8302938685 0.7591128805 0.67546728 0.5807305255 0.4764581918 0.3643624277 0.2462838427 0.1241612838 1.100181727e-15 
          -0 -0.1176443601 -0.233357003 -0.3452379304 -0.4514500605 -0.5502493931 -0.6400136459 -0.7192688923 -0.7867137634 -0.8412408162 -0.8819547181 -0.9081869479 -0.9195067731 -0.9157283226 -0.8969136383 -0.8633716568 -0.8156531366 -0.7545416145 -0.6810405399 -0.5963567985 -0.5018808949 -0.3991641209 -0.2898930831 -0.1758620089 -0.05894328533 0.05894328533 0.1758620089 0.2898930831 0.3991641209 0.5018808949 0.5963567985 0.6810405399 0.7545416145 0.8156531366 0.8633716568 0.8969136383 0.9157283226 0.9195067731 0.9081869479 0.8819547181 0.8412408162 0.7867137634 0.7192688923 0.6400136459 0.5502493931 0.4514500605 0.3452379304 0.233357003 0.1176443601 1.042435865e-15 
          -0 -0.1080805092 -0.2143863395 -0.317171952 -0.4147496098 -0.5055170904 -0.5879839945 -0.6607962175 -0.722758185 -0.7728524831 -0.8102565647 -0.834356256 -0.8447558406 -0.8412845576 -0.8239994055 -0.7931842059 -0.7493449436 -0.693201458 -0.6256756237 -0.5478762129 -0.4610806898 -0.3667142346 -0.2663263417 -0.1615653777 -0.05415151471 0.05415151471 0.1615653777 0.2663263417 0.3667142346 0.4610806898 0.5478762129 0.6256756237 0.693201458 0.7493449436 0.7931842059 0.8239994055 0.8412845576 0.8447558406 0.834356256 0.8102565647 0.7728524831 0.722758185 0.6607962175 0.5879839945 0.5055170904 0.4147496098 0.317171952 0.2143863395 0.1080805092 9.576914611e-16 
          -0 -0.09571742997 -0.1898631824 -0.2808913866 -0.367307362 -0.4476921607 -0.5207258664 -0.5852092679 -0.6400835493 -0.6844476766 -0.7175731919 -0.7389161753 -0.7481261755 -0.7450519645 -0.729744021 -0.7024537007 -0.6636291101 -0.6139077479 -0.5541060374 -0.4852059212 -0.4083387371 -0.3247666422 -0.235861888 -0.1430842882 -0.04795724829 0.04795724829 0.1430842882 0.235861888 0.3247666422 0.4083387371 0.4852059212 0.5541060374 0.6139077479 0.6636291101 0.7024537007 0.729744021 0.7450519645 0.7481261755 0.7389161753 0.7175731919 0.6844476766 0.6400835493 0.5852092679 0.5207258664 0.4476921607 0.367307362 0.2808913866 0.1898631824 0.09571742997 8.481433518e-16 
          -0 -0.08087531955 -0.1604226686 -0.2373358818 -0.3103520465 -0.3782722391 -0.439981212 -0.4944657056 -0.5408310859 -0.5783160348 -0.6063050504 -0.6243385538 -0.6321204354 -0.6295229169 -0.6165886496 -0.5935300137 -0.5607256313 -0.5187141496 -0.4681853959 -0.4099690509 -0.3450210255 -0.2744077644 -0.1992887353 -0.1208973907 -0.04052091434 0.04052091434 0.1208973907 0.1992887353 0.2744077644 0.3450210255 0.4099690509 0.4681853959 0.5187141496 0.5607256313 0.5935300137 0.6165886496 0.6295229169 0.6321204354 0.6243385538 0.6063050504 0.5783160348 0.5408310859 0.4944657056 0.439981212 0.3782722391 0.3103520465 0.2373358818 0.1604226686 0.08087531955 7.166287752e-16 
          -0 -0.06393858084 -0.126827292 -0.1876335024 -0.245358776 -0.2990552652 -0.3478412753 -0.3909157412 -0.4275713815 -0.4572063115 -0.4793339265 -0.4935908917 -0.4997431081 -0.4976895565 -0.4874639561 -0.469234211 -0.4432996532 -0.4100861273 -0.3701389985 -0.3241141977 -0.2727674506 -0.2169418696 -0.157554109 -0.09557931435 -0.03203510999 0.03203510999 0.09557931435 0.157554109 0.2169418696 0.2727674506 0.3241141977 0.3701389985 0.4100861273 0.4432996532 0.469234211 0.4874639561 0.4976895565 0.4997431081 0.4935908917 0.4793339265 0.4572063115 0.4275713815 0.3909157412 0.3478412753 0.2990552652 0.245358776 0.1876335024 0.126827292 0.06393858084 5.665538898e-16 
          -0 -0.04534586647 -0.08994715508 -0.1330715139 -0.1740108421 -0.2120929171 -0.2466924323 -0.2772412645 -0.3032378029 -0.3242551849 -0.3399483057 -0.3500594848 -0.3544226968 -0.3529662979 -0.3457142022 -0.3327854888 -0.3143924469 -0.2908370897 -0.2625061955 -0.2298649569 -0.193449342 -0.1538572943 -0.1117389141 -0.06778578394 -0.02271961312 0.02271961312 0.06778578394 0.1117389141 0.1538572943 0.193449342 0.2298649569 0.2625061955 0.2908370897 0.3143924469 0.3327854888 0.3457142022 0.3529662979 0.3544226968 0.3500594848 0.3399483057 0.3242551849 0.3032378029 0.2772412645 0.2466924323 0.2120929171 0.1740108421 0.1330715139 0.08994715508 0.04534586647 4.018055562e-16 
          -0 -0.02557871798 -0.05073743413 -0.075063043 -0.09815611879 -0.1196374738 -0.1391543848 -0.1563863847 -0.1710505244 -0.1829060193 -0.1917582024 -0.1974617211 -0.1999229238 -0.1991013976 -0.195010632 -0.1877177972 -0.1773426414 -0.1640555242 -0.14807462 -0.1296623345 -0.1091209971 -0.08678789594 -0.06302973992 -0.03823663733 -0.0128156902 0.0128156902 0.03823663733 0.06302973992 0.08678789594 0.1091209971 0.1296623345 0.14807462 0.1640555242 0.1773426414 0.1877177972 0.195010632 0.1991013976 0.1999229238 0.1974617211 0.1917582024 0.1829060193 0.1710505244 0.1563863847 0.1391543848 0.1196374738 0.09815611879 0.075063043 0.05073743413 0.02557871798 2.266506697e-16 
          -0 -0.005149094134 -0.01021364028 -0.01511047874 -0.01975920356 -0.0240834828 -0.02801231192 -0.03148117965 -0.03443312728 -0.03681968391 -0.03860166236 -0.03974980257 -0.04024525212 -0.04007987575 -0.03925638892 -0.03778831328 -0.03569975457 -0.03302500688 -0.02980798949 -0.02610152574 -0.02196647566 -0.01747073665 -0.01268812863 -0.007697181895 -0.002579847641 0.002579847641 0.007697181895 0.01268812863 0.01747073665 0.02196647566 0.02610152574 0.02980798949 0.03302500688 0.03569975457 0.03778831328 0.03925638892 0.04007987575 0.04024525212 0.03974980257 0.03860166236 0.03681968391 0.03443312728 0.03148117965 0.02801231192 0.0240834828 0.01975920356 0.01511047874 0.01021364028 0.005149094134 4.562564999e-17 
          0 0.01541388855 0.03057468148 0.04523343898 0.05914946466 0.07209425777 0.08385526516 0.09423937142 0.1030760698 0.110220262 0.1155546405 0.118991615 0.1204747505 0.1199796939 0.117514574 0.1131198681 0.1068677371 0.09886084081 0.08923065223 0.07813529882 0.06575696596 0.05229890553 0.03798209852 0.02304162651 0.00772281162 -0.00772281162 -0.02304162651 -0.03798209852 -0.05229890553 -0.06575696596 -0.07813529882 -0.08923065223 -0.09886084081 -0.1068677371 -0.1131198681 -0.117514574 -0.1199796939 -0.1204747505 -0.118991615 -0.1155546405 -0.110220262 -0.1030760698 -0.09423937142 -0.08385526516 -0.07209425777 -0.05914946466 -0.04523343898 -0.03057468148 -0.01541388855 -1.365810501e-16 
          0 0.03557765962 0.07057113505 0.1044058344 0.1365261928 0.1664047949 0.1935510349 0.2175191723 0.2379156508 0.2544055609 0.2667181388 0.2746512122 0.2780745203 0.2769318524 0.2712419712 0.2610983043 0.2466674105 0.2281862446 0.2059582669 0.1803484602 0.1517773367 0.1207140335 0.08766860928 0.05318366888 0.01782545412 -0.01782545412 -0.05318366888 -0.08766860928 -0.1207140335 -0.1517773367 -0.1803484602 -0.2059582669 -0.2281862446 -0.2466674105 -0.2610983043 -0.2712419712 -0.2769318524 -0.2780745203 -0.2746512122 -0.2667181388 -0.2544055609 -0.2379156508 -0.2175191723 -0.1935510349 -0.1664047949 -0.1365261928 -0.1044058344 -0.07057113505 -0.03557765962 -3.152503728e-16 
          0 0.05481998799 0.1087398333 0.1608741735 0.2103669643 0.2564055353 0.2982339345 0.3351653408 0.3665933414 0.3920018895 0.4109737775 0.4231974873 0.4284723061 0.4267116215 0.4179443439 0.4023144316 0.3800785276 0.3516017446 0.3173516707 0.2778906912 0.2338667541 0.1860027315 0.1350845491 0.08194828217 0.02746642671 -0.02746642671 -0.08194828217 -0.1350845491 -0.1860027315 -0.2338667541 -0.2778906912 -0.3173516707 -0.3516017446 -0.3800785276 -0.4023144316 -0.4179443439 -0.4267116215 -0.4284723061 -0.4231974873 -0.4109737775 -0.3920018895 -0.3665933414 -0.3351653408 -0.2982339345 -0.2564055353 -0.2103669643 -0.1608741735 -0.1087398333 -0.05481998799 -4.857548764e-16 
          0 0.07264250747 0.144092227 0.2131759561 0.2787593419 0.339765507 0.3951927319 0.4441309031 0.4857764571 0.5194455751 0.5445854111 0.5607831698 0.5677728843 0.5654397837 0.5538221775 0.5331108265 0.5036458104 0.4659109441 0.4205258329 0.3682356992 0.3098991455 0.2464740564 0.1790018701 0.108590478 0.03639603329 -0.03639603329 -0.108590478 -0.1790018701 -0.2464740564 -0.3098991455 -0.3682356992 -0.4205258329 -0.4659109441 -0.5036458104 -0.5331108265 -0.5538221775 -0.5654397837 -0.5677728843 -0.5607831698 -0.5445854111 -0.5194455751 -0.4857764571 -0.4441309031 -0.3951927319 -0.339765507 -0.2787593419 -0.2131759561 -0.144092227 -0.07264250747 -6.436785838e-16 
          0 0.08858362416 0.1757127077 0.2599565933 0.339931999 0.4143257306 0.4819162451 0.5415937082 0.5923782177 0.6334358931 0.6640925687 0.6838448627 0.692368443 0.6895233525 0.6753563077 0.650099931 0.6141689313 0.5681532948 0.5128085969 0.4490435961 0.3779053118 0.3005618327 0.2182831366 0.1324202375 0.04438300172 -0.04438300172 -0.1324202375 -0.2182831366 -0.3005618327 -0.3779053118 -0.4490435961 -0.5128085969 -0.5681532948 -0.6141689313 -0.650099931 -0.6753563077 -0.6895233525 -0.692368443 -0.6838448627 -0.6640925687 -0.6334358931 -0.5923782177 -0.5415937082 -0.4819162451 -0.4143257306 -0.339931999 -0.2599565933 -0.1757127077 -0.08858362416 -7.84931354e-16 
          0 0.1022304715 0.2027823215 0.3000044914 0.3923005958 0.4781551353 0.5561583807 0.6250295209 0.6836376936 0.7310205542 0.7664000776 0.7891953329 0.7990320227 0.7957486287 0.7793990642 0.7502517887 0.7087853995 0.6556807737 0.5918098877 0.5182214997 0.436123929 0.3468652154 0.2519109846 0.1528203824 0.05122047371 -0.05122047371 -0.1528203824 -0.2519109846 -0.3468652154 -0.436123929 -0.5182214997 -0.5918098877 -0.6556807737 -0.7087853995 -0.7502517887 -0.7793990642 -0.7957486287 -0.7990320227 -0.7891953329 -0.7664000776 -0.7310205542 -0.6836376936 -0.6250295209 -0.5561583807 -0.4781551353 -0.3923005958 -0.3000044914 -0.2027823215 -0.1022304715 -9.058548145e-16 
          0 0.1132296034 0.2245999798 0.3322824307 0.4345088133 0.5296005732 0.6159963064 0.6922773972 0.7571913123 0.809672167 0.8488582271 0.8741060585 0.8850010927 0.8813644334 0.8632557944 0.8309725192 0.7850446982 0.7262264649 0.6554836132 0.5739777386 0.4830471655 0.3841849712 0.2790144704 0.1692625596 0.05673136235 -0.05673136235 -0.1692625596 -0.2790144704 -0.3841849712 -0.4830471655 -0.5739777386 -0.6554836132 -0.7262264649 -0.7850446982 -0.8309725192 -0.8632557944 -0.8813644334 -0.8850010927 -0.8741060585 -0.8488582271 -0.809672167 -0.7571913123 -0.6922773972 -0.6159963064 -0.5296005732 -0.4345088133 -0.3322824307 -0.2245999798 -0.1132296034 -1.003317111e-15 
          0 0.121296148 0.2406006165 0.3559544296 0.4654634808 0.5673296345 0.6598802513 0.7415956526 0.8111340738 0.8673536959 0.9093313943 0.9363778964 0.9480490993 0.9441533622 0.924754653 0.8901714979 0.8409717515 0.7779632722 0.7021806574 0.6148682557 0.5174597342 0.4115545381 0.298891628 0.1813209255 0.0607729385 -0.0607729385 -0.1813209255 -0.298891628 -0.4115545381 -0.5174597342 -0.6148682557 -0.7021806574 -0.7779632722 -0.8409717515 -0.8901714979 -0.924754653 -0.9441533622 -0.9480490993 -0.9363778964 -0.9093313943 -0.8673536959 -0.8111340738 -0.7415956526 -0.6598802513 -0.5673296345 -0.4654634808 -0.3559544296 -0.2406006165 -0.121296148 -1.074794022e-15 
          0 0.126221186 0.2503698237 0.3704073957 0.4843628886 0.5903651562 0.6866736443 0.7717069701 0.8440688888 0.9025712197 0.9462533561 0.9743980386 0.9865431322 0.9824892149 0.9623028518 0.9263155025 0.8751180782 0.8095512393 0.7306915914 0.6398340078 0.5384703675 0.4282650587 0.3110276494 0.1886831747 0.06324052746 -0.06324052746 -0.1886831747 -0.3110276494 -0.4282650587 -0.5384703675 -0.6398340078 -0.7306915914 -0.8095512393 -0.8751180782 -0.9263155025 -0.9623028518 -0.9824892149 -0.9865431322 -0.9743980386 -0.9462533561 -0.9025712197 -0.8440688888 -0.7717069701 -0.6866736443 -0.5903651562 -0.4843628886 -0.3704073957 -0.2503698237 -0.126221186 -1.118434331e-15 
          0 0.1278771617 0.2536545839 0.3752670049 0.490717552 0.5981105305 0.6956825506 0.7818314825 0.855142763 0.914412623 0.958667853 0.9871817834 0.9994862162 0.9953791129 0.9749279122 0.938468422 0.8865993064 0.8201722546 0.7402779971 0.6482283953 0.5455349012 0.4338837391 0.315108218 0.1911586287 0.06407021998 -0.06407021998 -0.1911586287 -0.315108218 -0.4338837391 -0.5455349012 -0.6482283953 -0.7402779971 -0.8201722546 -0.8865993064 -0.938468422 -0.9749279122 -0.9953791129 -0.9994862162 -0.9871817834 -0.958667853 -0.914412623 -0.855142763 -0.7818314825 -0.6956825506 -0.5981105305 -0.490717552 -0.3752670049 -0.2536545839 -0.1278771617 -1.13310778e-15
          
        </DataArray>
      </PointData>
    </Piece>
  </ImageData>
</VTKFile>
