<?xml version="1.0"?>
<VTKFile type="ImageData" version="0.1" byte_order="LittleEndian">
  <ImageData WholeExtent="0 49 0 39 0 0" Origin="0.0 0.0 0.0" Spacing="1.0 1.0 1.0">
    <Piece Extent="0 49 0 39 0 0">
      <PointData Scalars="wave">
        <DataArray type="Float64" Name="wave" NumberOfComponents="1" format="ascii">
          -0.5877852523 -0.6864143405 -0.7737725242 -0.8484253844 -0.9091471233 -0.9549406916 -0.9850541601 -0.9989930665 -0.9965285344 -0.9777010314 -0.9428197044 -0.8924573039 -0.8274407792 -0.7488376997 -0.6579387259 -0.5562364165 -0.4454007204 -0.3272515569 -0.2037289318 -0.07686108329 0.05126882207 0.1785568948 0.3029130682 0.4222954175 0.5347436877 0.6384114812 0.731596576 0.8127688751 0.8805955319 0.9339628343 0.9719944928 0.9940660286 0.9998150277 0.9891470917 0.9622373878 0.9195277726 0.8617195367 0.7897618899 0.7048363748 0.6083374658 0.5018496724 0.3871215213 0.2660368456 0.1405838521 0.01282247576 -0.1151494453 -0.2412306157 -0.363350786 -0.4795047465 -0.5877852523 
          -0.5801735876 -0.6775254551 -0.7637523732 -0.8374384985 -0.8973739069 -0.9425744604 -0.9722979674 -0.9860563687 -0.9836237516 -0.9650400598 -0.9306104368 -0.8809002162 -0.8167256384 -0.7391404482 -0.6494185922 -0.549033301 -0.4396328981 -0.3230137352 -0.2010906956 -0.07586575245 0.05060490429 0.1762446299 0.2989904236 0.4168268027 0.5278188973 0.6301442202 0.7221225925 0.8022437317 0.869192051 0.9218682609 0.9594074194 0.9811931346 0.9868676857 0.9763378966 0.9497766663 0.9076201294 0.8505604951 0.7795346809 0.6957089288 0.6004596554 0.495350851 0.3821083993 0.2625917383 0.1387633282 0.01265642807 -0.1136582902 -0.2381067426 -0.3586454888 -0.473295286 -0.5801735876 
          -0.5575357318 -0.6510890162 -0.733951437 -0.8047623954 -0.8623591776 -0.9057960459 -0.9343597682 -0.9475813289 -0.9452436304 -0.9273850576 -0.8942988478 -0.8465282756 -0.7848577326 -0.7102998473 -0.6240788581 -0.5276105114 -0.4224788146 -0.3104100274 -0.1932443161 -0.07290553847 0.04863034607 0.1693677217 0.287324084 0.4005625928 0.5072238748 0.6055565549 0.6939460131 0.770940897 0.8352769526 0.8858977837 0.9219721978 0.9429078538 0.948360989 0.9382420629 0.9127172281 0.8722056016 0.8173723833 0.7491179331 0.6685629871 0.5770302553 0.4760227027 0.3671988705 0.2523456429 0.1333489069 0.01216258554 -0.1092234452 -0.2288160299 -0.3446514618 -0.4548277261 -0.5575357318 
          -0.5204579934 -0.6077897139 -0.685141544 -0.751243369 -0.8050097986 -0.8455579895 -0.8722221417 -0.8845644304 -0.8823821956 -0.8657112695 -0.8348253883 -0.7902316974 -0.7326624238 -0.6630628534 -0.5825758094 -0.4925228867 -0.3943827517 -0.2897668629 -0.1803930103 -0.06805710934 0.04539628743 0.1581042784 0.2682162015 0.373924022 0.4734920204 0.5652852929 0.6477965965 0.719671098 0.7797286198 0.8269830194 0.8606583805 0.8802017549 0.8852922408 0.8758462526 0.8520188931 0.814201407 0.7630147562 0.6992994243 0.6241016151 0.5386560747 0.4443658164 0.3427790837 0.235563928 0.124480819 0.01135373843 -0.1019597702 -0.2135991022 -0.3217311429 -0.4245803671 -0.5204579934 
          -0.4699006664 -0.5487489772 -0.618586845 -0.6782675339 -0.7268110886 -0.7634204254 -0.7874944199 -0.7986377777 -0.7966675254 -0.7816160143 -0.7537303898 -0.7134685332 -0.661491543 -0.59865288 -0.5259843532 -0.4446791779 -0.3560723828 -0.261618889 -0.1628696202 -0.06144603683 0.04098648879 0.1427460174 0.2421616604 0.3376010155 0.4274969714 0.5103734388 0.5848695884 0.6497621956 0.7039857254 0.7466498292 0.7770539633 0.7946988929 0.7992948886 0.7907664844 0.7692537163 0.7351098235 0.6888954477 0.6313694277 0.5634763392 0.4863309847 0.4012000889 0.3094814988 0.212681231 0.1123887433 0.01025083546 -0.09205539077 -0.19285007 -0.2904781565 -0.3833365996 -0.4699006664 
          -0.4071731589 -0.4754959303 -0.5360110716 -0.5877249259 -0.6297883533 -0.6615106732 -0.6823710062 -0.6920268262 -0.6903195848 -0.6772773149 -0.6531141702 -0.6182269089 -0.5731883788 -0.5187381114 -0.4557701786 -0.385318512 -0.3085399261 -0.2266951232 -0.1411279926 -0.05324354423 0.03551516163 0.1236907095 0.2098352594 0.2925343201 0.3704299753 0.4422431806 0.5067947651 0.5630247936 0.6100099705 0.6469788006 0.6733242566 0.688613747 0.6925962187 0.6852062796 0.6665652724 0.6369792818 0.596934109 0.5470872946 0.488257322 0.4214101777 0.3476434899 0.2681685056 0.1842902019 0.09738585809 0.008882441232 -0.07976682507 -0.1671063223 -0.2517019383 -0.3321646155 -0.4071731589 
          -0.3339000805 -0.3899277885 -0.439552893 -0.4819605511 -0.5164544304 -0.5424681421 -0.559574542 -0.5674927433 -0.5660927295 -0.5553974888 -0.5355826366 -0.5069735323 -0.4700399366 -0.4253882982 -0.3737517957 -0.315978299 -0.2530164474 -0.1859000728 -0.115731224 -0.04366207181 0.02912401043 0.1014318772 0.1720742354 0.2398911394 0.3037690375 0.3626590564 0.4155942236 0.4617053452 0.5002352778 0.5305513609 0.5521558054 0.5646938668 0.5679596705 0.5618995921 0.546613138 0.5223513112 0.4895124904 0.448635888 0.4003926967 0.3455750684 0.2850831071 0.219910089 0.1511261533 0.07986073036 0.007283996446 -0.06541234049 -0.1370346086 -0.2064067722 -0.2723897424 -0.3339000805 
          -0.2519791654 -0.2942607218 -0.3317105253 -0.3637136512 -0.389744609 -0.4093759711 -0.422285391 -0.4282608965 -0.4272043699 -0.4191331594 -0.404179794 -0.3825898075 -0.354717707 -0.3210211516 -0.2820534377 -0.2384544141 -0.1909399757 -0.1402903081 -0.0873370776 -0.03294977467 0.02197856265 0.07654601259 0.1298565791 0.1810349042 0.2292406412 0.2736822531 0.3136300101 0.3484279709 0.3775047541 0.4003829197 0.4166868088 0.426148712 0.4286132652 0.4240400003 0.4125040104 0.3941947161 0.3694127554 0.3385650475 0.3021581109 0.2607897464 0.2151392215 0.1659561166 0.1140480168 0.06026725167 0.005496899978 -0.04936371066 -0.1034137705 -0.1557657792 -0.205560118 -0.2519791654 
          -0.1635321222 -0.190972457 -0.2152770293 -0.2360467588 -0.252940607 -0.2656811774 -0.2740592702 -0.2779373174 -0.2772516416 -0.2720135014 -0.2623089071 -0.2482972077 -0.2302084751 -0.2083397257 -0.1830500437 -0.1547546851 -0.1239182589 -0.09104709822 -0.05668094673 -0.02138409567 0.01426388166 0.04967764644 0.08427570564 0.1174899601 0.1487750326 0.1776172232 0.203542944 0.2261264952 0.2449970556 0.2598447711 0.2704258427 0.2765665294 0.2781660014 0.2751979953 0.2677112457 0.2558286849 0.2397454241 0.2197255501 0.1960977887 0.1692501069 0.1396233431 0.1077039679 0.07401609648 0.03911288281 0.003567436688 -0.03203658665 -0.06711457012 -0.1010905342 -0.1334065945 -0.1635321222 
          -0.07084968301 -0.08273810588 -0.09326797134 -0.1022663793 -0.1095855761 -0.1151053808 -0.1187351583 -0.1204153078 -0.1201182413 -0.1178488366 -0.1136443572 -0.1075738407 -0.09973696463 -0.09026241037 -0.07930574984 -0.06704689108 -0.05368712422 -0.03944581627 -0.02455680911 -0.009264579821 0.006179773613 0.02152265534 0.03651213565 0.05090208771 0.0644562289 0.07695200059 0.08818422255 0.09796846202 0.1061440621 0.1125767795 0.1171609894 0.119821419 0.1205143843 0.1192285067 0.1159849003 0.1108368251 0.1038688123 0.09519527641 0.08495863674 0.0733269786 0.0604912935 0.04666234304 0.03206719819 0.01694551084 0.001545578661 -0.01387973187 -0.02907713759 -0.04379709752 -0.05779791031 -0.07084968301 
          0.02366772577 0.02763911872 0.03115667812 0.03416264572 0.03660766362 0.0384515847 0.03966413182 0.04022539499 0.04012615829 0.03936805117 0.03796352175 0.03593563235 0.03331768086 0.03015265397 0.02649252133 0.02239738223 0.01793447873 0.01317709159 0.008203336966 0.003094883777 -0.002064387319 -0.007189761232 -0.01219707946 -0.01700412199 -0.0215319573 -0.02570623847 -0.02945842391 -0.03272690285 -0.03545800695 -0.03760689155 -0.03913827203 -0.04002700317 -0.04025849203 -0.03982893755 -0.03874539303 -0.03702565022 -0.03469794726 -0.03180050496 -0.02838089925 -0.02449527996 -0.02020744885 -0.01558781199 -0.01071222369 -0.005660740971 -0.0005163090411 0.004636600669 0.009713377524 0.01463066099 0.0193077094 0.02366772577 
          0.1175721529 0.1373005047 0.154774386 0.1697068761 0.1818527841 0.1910126744 0.1970361418 0.1998242812 0.1993313115 0.1955653271 0.1885881655 0.1785143914 0.1655094159 0.1497867804 0.1316046501 0.1112615751 0.08909158811 0.0654587197 0.04075102092 0.01537419151 -0.0102550817 -0.03571596676 -0.06059039663 -0.08446993386 -0.1069624771 -0.1276986995 -0.1463381127 -0.1625746581 -0.1761417322 -0.1868165639 -0.1944238728 -0.198838747 -0.1999886946 -0.1978548333 -0.1924722011 -0.1839291807 -0.1723660482 -0.15797267 -0.1409853849 -0.1216831236 -0.1003828289 -0.07743425088 -0.0532142046 -0.02812038256 -0.00256482461 0.02303284769 0.04825232126 0.07267949306 0.09591326959 0.1175721529 
          0.208431523 0.2434058797 0.2743835185 0.3008557876 0.322388013 0.3386266361 0.3493050192 0.3542478235 0.3533738884 0.3466975638 0.3343284748 0.3164697214 0.293414544 0.2655415079 0.2333082876 0.1972441516 0.1579412722 0.1160450014 0.07224327485 0.02725531576 -0.01818017486 -0.06331714751 -0.1074144543 -0.1497480188 -0.189622725 -0.2263838312 -0.2594277212 -0.2882118152 -0.3122634791 -0.3311877854 -0.3446739973 -0.3525006718 -0.354539295 -0.3507563927 -0.3412140802 -0.3260690419 -0.305569959 -0.2800534258 -0.2499384231 -0.2157194383 -0.1779583464 -0.1372751833 -0.09433796557 -0.04985172101 -0.004546912569 0.04083255605 0.08554155523 0.1288459644 0.1700347265 0.208431523 
          0.2938926261 0.3432071702 0.3868862621 0.4242126922 0.4545735617 0.4774703458 0.4925270801 0.4994965333 0.4982642672 0.4888505157 0.4714098522 0.4462286519 0.4137203896 0.3744188499 0.328969363 0.2781182082 0.2227003602 0.1636257784 0.1018644659 0.03843054165 -0.02563441104 -0.0892784474 -0.1514565341 -0.2111477087 -0.2673718438 -0.3192057406 -0.365798288 -0.4063844376 -0.4402977659 -0.4669814171 -0.4859972464 -0.4970330143 -0.4999075138 -0.4945735458 -0.4811186939 -0.4597638863 -0.4308597684 -0.394880945 -0.3524181874 -0.3041687329 -0.2509248362 -0.1935607607 -0.1330184228 -0.07029192607 -0.006411237881 0.05757472266 0.1206153078 0.181675393 0.2397523733 0.2938926261 
          0.3717420647 0.4341195754 0.4893688547 0.5365827109 0.5749858939 0.6039478244 0.6229929483 0.6318085452 0.6302498633 0.618342496 0.596281962 0.5644304948 0.5233110944 0.4735989403 0.4161103046 0.3517891493 0.2816916259 0.2069687338 0.1288474208 0.04861043669 -0.03242472943 -0.1129274824 -0.1915759692 -0.2670787839 -0.3381961724 -0.403760389 -0.4626948713 -0.5140319165 -0.5569285719 -0.5906804755 -0.6147334221 -0.6286924628 -0.6323283907 -0.6255815039 -0.6085625861 -0.5815510875 -0.5449905361 -0.4994812551 -0.4457705058 -0.384740217 -0.3173925046 -0.244833216 -0.1682537727 -0.08891160717 -0.008109515499 0.0728257342 0.1525651873 0.2297995243 0.3032605595 0.3717420647 
          0.439963579 0.5137885116 0.579177051 0.6350555193 0.6805063935 0.7147833715 0.7373236264 0.7477570477 0.7459123189 0.7318197305 0.7057106823 0.6680138842 0.6193483167 0.5605130669 0.492474208 0.4163489363 0.3333872265 0.2449513077 0.1524932952 0.05753134696 -0.03837526437 -0.1336517549 -0.2267336873 -0.3160926589 -0.4002613977 -0.4778578555 -0.5476079004 -0.6083662388 -0.6591352204 -0.6990812199 -0.727548325 -0.7440691068 -0.7483722944 -0.7403872296 -0.720245027 -0.688276421 -0.6450063352 -0.5911452631 -0.5275776022 -0.4553471316 -0.3756398738 -0.2897646196 -0.1991314383 -0.1052285244 -0.009597760926 0.08619059747 0.1805637086 0.2719719687 0.3589144566 0.439963579 
          0.4967902677 0.5801505952 0.6539848659 0.7170807233 0.7684021349 0.8071064048 0.8325580098 0.8443390354 0.8422560373 0.8263432183 0.7968618666 0.754296065 0.6993447429 0.6329101995 0.5560832881 0.4701255044 0.376448273 0.2765897713 0.1721896733 0.06496222556 -0.04333190011 -0.1509145172 -0.2560191221 -0.3569199 -0.4519600631 -0.5395790544 -0.6183381726 -0.6869441951 -0.7442706129 -0.7893761278 -0.8215201085 -0.8401747517 -0.8450337488 -0.836017315 -0.8132735001 -0.7771757567 -0.728316809 -0.6674989193 -0.5957207159 -0.5141607947 -0.4241583676 -0.3271912717 -0.2248517043 -0.118820078 -0.01083742939 0.09732316954 0.2038857247 0.3071004819 0.4052726577 0.4967902677 
          0.5407503494 0.6314870831 0.7118548163 0.7805339132 0.8363966647 0.8785258062 0.9062295782 0.9190530856 0.9167857667 0.8994648509 0.8673747471 0.8210423739 0.7612285077 0.6889152904 0.6052901031 0.511726069 0.409759507 0.3010647052 0.1874264293 0.07071061665 -0.04716626241 -0.1642686727 -0.278673796 -0.3885031032 -0.4919532003 -0.5873254393 -0.6730538109 -0.7477306576 -0.8101297875 -0.8592266087 -0.8942149527 -0.9145203119 -0.9198092729 -0.9099949911 -0.8852386167 -0.8459466486 -0.79276426 -0.7265647041 -0.6484349759 -0.5596579633 -0.4616913824 -0.3561438418 -0.2447484292 -0.1293342541 -0.01179641412 0.1059351226 0.2219272076 0.334275254 0.4411345099 0.5407503494 
          0.5707052811 0.6664683873 0.7512881009 0.8237716847 0.8827289602 0.9271918506 0.9564302765 0.9699641436 0.9675712263 0.9492908163 0.9154230773 0.8665241166 0.8033968539 0.7270778371 0.6388202223 0.5400731971 0.432458185 0.3177422214 0.1978089393 0.0746276399 -0.04977904328 -0.1733683559 -0.294110965 -0.4100242801 -0.5192050079 -0.6198604039 -0.7103377091 -0.7891512888 -0.8550070261 -0.9068235717 -0.9437500994 -0.9651802764 -0.9707622201 -0.9604042749 -0.9342765181 -0.8928079667 -0.8366795331 -0.7668128448 -0.6843551107 -0.5906602846 -0.487266833 -0.3758724735 -0.2583062983 -0.1364987409 -0.01244987792 0.1118034117 0.2342208924 0.3527924725 0.46557121 0.5707052811 
          0.5858792458 0.6841885103 0.7712634183 0.8456742024 0.9061990394 0.9518441132 0.981859933 0.9957536399 0.9932970995 0.9745306482 0.9397624306 0.8895633398 0.8247576437 0.7464094498 0.6558052334 0.5544327132 0.4439564231 0.3261903809 0.2030683016 0.07661184648 -0.05110257308 -0.1779778898 -0.3019308145 -0.4209260436 -0.5330096786 -0.6363413095 -0.7292242337 -0.8101333161 -0.8777400319 -0.9309342806 -0.9688426142 -0.9908425788 -0.9965729356 -0.9859395925 -0.9591171484 -0.9165460273 -0.8589252458 -0.7872009355 -0.7025508076 -0.6063648148 -0.5002223286 -0.3858662055 -0.2651741701 -0.140127982 -0.01278089642 0.1147760512 0.2404483791 0.3621725514 0.4779498604 0.5858792458 
          0.5858792458 0.6841885103 0.7712634183 0.8456742024 0.9061990394 0.9518441132 0.981859933 0.9957536399 0.9932970995 0.9745306482 0.9397624306 0.8895633398 0.8247576437 0.7464094498 0.6558052334 0.5544327132 0.4439564231 0.3261903809 0.2030683016 0.07661184648 -0.05110257308 -0.1779778898 -0.3019308145 -0.4209260436 -0.5330096786 -0.6363413095 -0.7292242337 -0.8101333161 -0.8777400319 -0.9309342806 -0.9688426142 -0.9908425788 -0.9965729356 -0.9859395925 -0.9591171484 -0.9165460273 -0.8589252458 -0.7872009355 -0.7025508076 -0.6063648148 -0.5002223286 -0.3858662055 -0.2651741701 -0.140127982 -0.01278089642 0.1147760512 0.2404483791 0.3621725514 0.4779498604 0.5858792458 
          0.5707052811 0.6664683873 0.7512881009 0.8237716847 0.8827289602 0.9271918506 0.9564302765 0.9699641436 0.9675712263 0.9492908163 0.9154230773 0.8665241166 0.8033968539 0.7270778371 0.6388202223 0.5400731971 0.432458185 0.3177422214 0.1978089393 0.0746276399 -0.04977904328 -0.1733683559 -0.294110965 -0.4100242801 -0.5192050079 -0.6198604039 -0.7103377091 -0.7891512888 -0.8550070261 -0.9068235717 -0.9437500994 -0.9651802764 -0.9707622201 -0.9604042749 -0.9342765181 -0.8928079667 -0.8366795331 -0.7668128448 -0.6843551107 -0.5906602846 -0.487266833 -0.3758724735 -0.2583062983 -0.1364987409 -0.01244987792 0.1118034117 0.2342208924 0.3527924725 0.46557121 0.5707052811 
          0.5407503494 0.6314870831 0.7118548163 0.7805339132 0.8363966647 0.8785258062 0.9062295782 0.9190530856 0.9167857667 0.8994648509 0.8673747471 0.8210423739 0.7612285077 0.6889152904 0.6052901031 0.511726069 0.409759507 0.3010647052 0.1874264293 0.07071061665 -0.04716626241 -0.1642686727 -0.278673796 -0.3885031032 -0.4919532003 -0.5873254393 -0.6730538109 -0.7477306576 -0.8101297875 -0.8592266087 -0.8942149527 -0.9145203119 -0.9198092729 -0.9099949911 -0.8852386167 -0.8459466486 -0.79276426 -0.7265647041 -0.6484349759 -0.5596579633 -0.4616913824 -0.3561438418 -0.2447484292 -0.1293342541 -0.01179641412 0.1059351226 0.2219272076 0.334275254 0.4411345099 0.5407503494 
          0.4967902677 0.5801505952 0.6539848659 0.7170807233 0.7684021349 0.8071064048 0.8325580098 0.8443390354 0.8422560373 0.8263432183 0.7968618666 0.754296065 0.6993447429 0.6329101995 0.5560832881 0.4701255044 0.376448273 0.2765897713 0.1721896733 0.06496222556 -0.04333190011 -0.1509145172 -0.2560191221 -0.3569199 -0.4519600631 -0.5395790544 -0.6183381726 -0.6869441951 -0.7442706129 -0.7893761278 -0.8215201085 -0.8401747517 -0.8450337488 -0.836017315 -0.8132735001 -0.7771757567 -0.728316809 -0.6674989193 -0.5957207159 -0.5141607947 -0.4241583676 -0.3271912717 -0.2248517043 -0.118820078 -0.01083742939 0.09732316954 0.2038857247 0.3071004819 0.4052726577 0.4967902677 
          0.439963579 0.5137885116 0.579177051 0.6350555193 0.6805063935 0.7147833715 0.7373236264 0.7477570477 0.7459123189 0.7318197305 0.7057106823 0.6680138842 0.6193483167 0.5605130669 0.492474208 0.4163489363 0.3333872265 0.2449513077 0.1524932952 0.05753134696 -0.03837526437 -0.1336517549 -0.2267336873 -0.3160926589 -0.4002613977 -0.4778578555 -0.5476079004 -0.6083662388 -0.6591352204 -0.6990812199 -0.727548325 -0.7440691068 -0.7483722944 -0.7403872296 -0.720245027 -0.688276421 -0.6450063352 -0.5911452631 -0.5275776022 -0.4553471316 -0.3756398738 -0.2897646196 -0.1991314383 -0.1052285244 -0.009597760926 0.08619059747 0.1805637086 0.2719719687 0.3589144566 0.439963579 
          0.3717420647 0.4341195754 0.4893688547 0.5365827109 0.5749858939 0.6039478244 0.6229929483 0.6318085452 0.6302498633 0.618342496 0.596281962 0.5644304948 0.5233110944 0.4735989403 0.4161103046 0.3517891493 0.2816916259 0.2069687338 0.1288474208 0.04861043669 -0.03242472943 -0.1129274824 -0.1915759692 -0.2670787839 -0.3381961724 -0.403760389 -0.4626948713 -0.5140319165 -0.5569285719 -0.5906804755 -0.6147334221 -0.6286924628 -0.6323283907 -0.6255815039 -0.6085625861 -0.5815510875 -0.5449905361 -0.4994812551 -0.4457705058 -0.384740217 -0.3173925046 -0.244833216 -0.1682537727 -0.08891160717 -0.008109515499 0.0728257342 0.1525651873 0.2297995243 0.3032605595 0.3717420647 
          0.2938926261 0.3432071702 0.3868862621 0.4242126922 0.4545735617 0.4774703458 0.4925270801 0.4994965333 0.4982642672 0.4888505157 0.4714098522 0.4462286519 0.4137203896 0.3744188499 0.328969363 0.2781182082 0.2227003602 0.1636257784 0.1018644659 0.03843054165 -0.02563441104 -0.0892784474 -0.1514565341 -0.2111477087 -0.2673718438 -0.3192057406 -0.365798288 -0.4063844376 -0.4402977659 -0.4669814171 -0.4859972464 -0.4970330143 -0.4999075138 -0.4945735458 -0.4811186939 -0.4597638863 -0.4308597684 -0.394880945 -0.3524181874 -0.3041687329 -0.2509248362 -0.1935607607 -0.1330184228 -0.07029192607 -0.006411237881 0.05757472266 0.1206153078 0.181675393 0.2397523733 0.2938926261 
          0.208431523 0.2434058797 0.2743835185 0.3008557876 0.322388013 0.3386266361 0.3493050192 0.3542478235 0.3533738884 0.3466975638 0.3343284748 0.3164697214 0.293414544 0.2655415079 0.2333082876 0.1972441516 0.1579412722 0.1160450014 0.07224327485 0.02725531576 -0.01818017486 -0.06331714751 -0.1074144543 -0.1497480188 -0.189622725 -0.2263838312 -0.2594277212 -0.2882118152 -0.3122634791 -0.3311877854 -0.3446739973 -0.3525006718 -0.354539295 -0.3507563927 -0.3412140802 -0.3260690419 -0.305569959 -0.2800534258 -0.2499384231 -0.2157194383 -0.1779583464 -0.1372751833 -0.09433796557 -0.04985172101 -0.004546912569 0.04083255605 0.08554155523 0.1288459644 0.1700347265 0.208431523 
          0.1175721529 0.1373005047 0.154774386 0.1697068761 0.1818527841 0.1910126744 0.1970361418 0.1998242812 0.1993313115 0.1955653271 0.1885881655 0.1785143914 0.1655094159 0.1497867804 0.1316046501 0.1112615751 0.08909158811 0.0654587197 0.04075102092 0.01537419151 -0.0102550817 -0.03571596676 -0.06059039663 -0.08446993386 -0.1069624771 -0.1276986995 -0.1463381127 -0.1625746581 -0.1761417322 -0.1868165639 -0.1944238728 -0.198838747 -0.1999886946 -0.1978548333 -0.1924722011 -0.1839291807 -0.1723660482 -0.15797267 -0.1409853849 -0.1216831236 -0.1003828289 -0.07743425088 -0.0532142046 -0.02812038256 -0.00256482461 0.02303284769 0.04825232126 0.07267949306 0.09591326959 0.1175721529 
          0.02366772577 0.02763911872 0.03115667812 0.03416264572 0.03660766362 0.0384515847 0.03966413182 0.04022539499 0.04012615829 0.03936805117 0.03796352175 0.03593563235 0.03331768086 0.03015265397 0.02649252133 0.02239738223 0.01793447873 0.01317709159 0.008203336966 0.003094883777 -0.002064387319 -0.007189761232 -0.01219707946 -0.01700412199 -0.0215319573 -0.02570623847 -0.02945842391 -0.03272690285 -0.03545800695 -0.03760689155 -0.03913827203 -0.04002700317 -0.04025849203 -0.03982893755 -0.03874539303 -0.03702565022 -0.03469794726 -0.03180050496 -0.02838089925 -0.02449527996 -0.02020744885 -0.01558781199 -0.01071222369 -0.005660740971 -0.0005163090411 0.004636600669 0.009713377524 0.01463066099 0.0193077094 0.02366772577 
          -0.07084968301 -0.08273810588 -0.09326797134 -0.1022663793 -0.1095855761 -0.1151053808 -0.1187351583 -0.1204153078 -0.1201182413 -0.1178488366 -0.1136443572 -0.1075738407 -0.09973696463 -0.09026241037 -0.07930574984 -0.06704689108 -0.05368712422 -0.03944581627 -0.02455680911 -0.009264579821 0.006179773613 0.02152265534 0.03651213565 0.05090208771 0.0644562289 0.07695200059 0.08818422255 0.09796846202 0.1061440621 0.1125767795 0.1171609894 0.119821419 0.1205143843 0.1192285067 0.1159849003 0.1108368251 0.1038688123 0.09519527641 0.08495863674 0.0733269786 0.0604912935 0.04666234304 0.03206719819 0.01694551084 0.001545578661 -0.01387973187 -0.02907713759 -0.04379709752 -0.05779791031 -0.07084968301 
          -0.1635321222 -0.190972457 -0.2152770293 -0.2360467588 -0.252940607 -0.2656811774 -0.2740592702 -0.2779373174 -0.2772516416 -0.2720135014 -0.2623089071 -0.2482972077 -0.2302084751 -0.2083397257 -0.1830500437 -0.1547546851 -0.1239182589 -0.09104709822 -0.05668094673 -0.02138409567 0.01426388166 0.04967764644 0.08427570564 0.1174899601 0.1487750326 0.1776172232 0.203542944 0.2261264952 0.2449970556 0.2598447711 0.2704258427 0.2765665294 0.2781660014 0.2751979953 0.2677112457 0.2558286849 0.2397454241 0.2197255501 0.1960977887 0.1692501069 0.1396233431 0.1077039679 0.07401609648 0.03911288281 0.003567436688 -0.03203658665 -0.06711457012 -0.1010905342 -0.1334065945 -0.1635321222 
          -0.2519791654 -0.2942607218 -0.3317105253 -0.3637136512 -0.389744609 -0.4093759711 -0.422285391 -0.4282608965 -0.4272043699 -0.4191331594 -0.404179794 -0.3825898075 -0.354717707 -0.3210211516 -0.2820534377 -0.2384544141 -0.1909399757 -0.1402903081 -0.0873370776 -0.03294977467 0.02197856265 0.07654601259 0.1298565791 0.1810349042 0.2292406412 0.2736822531 0.3136300101 0.3484279709 0.3775047541 0.4003829197 0.4166868088 0.426148712 0.4286132652 0.4240400003 0.4125040104 0.3941947161 0.3694127554 0.3385650475 0.3021581109 0.2607897464 0.2151392215 0.1659561166 0.1140480168 0.06026725167 0.005496899978 -0.04936371066 -0.1034137705 -0.1557657792 -0.205560118 -0.2519791654 
          -0.3339000805 -0.3899277885 -0.439552893 -0.4819605511 -0.5164544304 -0.5424681421 -0.559574542 -0.5674927433 -0.5660927295 -0.5553974888 -0.5355826366 -0.5069735323 -0.4700399366 -0.4253882982 -0.3737517957 -0.315978299 -0.2530164474 -0.1859000728 -0.115731224 -0.04366207181 0.02912401043 0.1014318772 0.1720742354 0.2398911394 0.3037690375 0.3626590564 0.4155942236 0.4617053452 0.5002352778 0.5305513609 0.5521558054 0.5646938668 0.5679596705 0.5618995921 0.546613138 0.5223513112 0.4895124904 0.448635888 0.4003926967 0.3455750684 0.2850831071 0.219910089 0.1511261533 0.07986073036 0.007283996446 -0.06541234049 -0.1370346086 -0.2064067722 -0.2723897424 -0.3339000805 
          -0.4071731589 -0.4754959303 -0.5360110716 -0.5877249259 -0.6297883533 -0.6615106732 -0.6823710062 -0.6920268262 -0.6903195848 -0.6772773149 -0.6531141702 -0.6182269089 -0.5731883788 -0.5187381114 -0.4557701786 -0.385318512 -0.3085399261 -0.2266951232 -0.1411279926 -0.05324354423 0.03551516163 0.1236907095 0.2098352594 0.2925343201 0.3704299753 0.4422431806 0.5067947651 0.5630247936 0.6100099705 0.6469788006 0.6733242566 0.688613747 0.6925962187 0.6852062796 0.6665652724 0.6369792818 0.596934109 0.5470872946 0.488257322 0.4214101777 0.3476434899 0.2681685056 0.1842902019 0.09738585809 0.008882441232 -0.07976682507 -0.1671063223 -0.2517019383 -0.3321646155 -0.4071731589 
          -0.4699006664 -0.5487489772 -0.618586845 -0.6782675339 -0.7268110886 -0.7634204254 -0.7874944199 -0.7986377777 -0.7966675254 -0.7816160143 -0.7537303898 -0.7134685332 -0.661491543 -0.59865288 -0.5259843532 -0.4446791779 -0.3560723828 -0.261618889 -0.1628696202 -0.06144603683 0.04098648879 0.1427460174 0.2421616604 0.3376010155 0.4274969714 0.5103734388 0.5848695884 0.6497621956 0.7039857254 0.7466498292 0.7770539633 0.7946988929 0.7992948886 0.7907664844 0.7692537163 0.7351098235 0.6888954477 0.6313694277 0.5634763392 0.4863309847 0.4012000889 0.3094814988 0.212681231 0.1123887433 0.01025083546 -0.09205539077 -0.19285007 -0.2904781565 -0.3833365996 -0.4699006664 
          -0.5204579934 -0.6077897139 -0.685141544 -0.751243369 -0.8050097986 -0.8455579895 -0.8722221417 -0.8845644304 -0.8823821956 -0.8657112695 -0.8348253883 -0.7902316974 -0.7326624238 -0.6630628534 -0.5825758094 -0.4925228867 -0.3943827517 -0.2897668629 -0.1803930103 -0.06805710934 0.04539628743 0.1581042784 0.2682162015 0.373924022 0.4734920204 0.5652852929 0.6477965965 0.719671098 0.7797286198 0.8269830194 0.8606583805 0.8802017549 0.8852922408 0.8758462526 0.8520188931 0.814201407 0.7630147562 0.6992994243 0.6241016151 0.5386560747 0.4443658164 0.3427790837 0.235563928 0.124480819 0.01135373843 -0.1019597702 -0.2135991022 -0.3217311429 -0.4245803671 -0.5204579934 
          -0.5575357318 -0.6510890162 -0.733951437 -0.8047623954 -0.8623591776 -0.9057960459 -0.9343597682 -0.9475813289 -0.9452436304 -0.9273850576 -0.8942988478 -0.8465282756 -0.7848577326 -0.7102998473 -0.6240788581 -0.5276105114 -0.4224788146 -0.3104100274 -0.1932443161 -0.07290553847 0.04863034607 0.1693677217 0.287324084 0.4005625928 0.5072238748 0.6055565549 0.6939460131 0.770940897 0.8352769526 0.8858977837 0.9219721978 0.9429078538 0.948360989 0.9382420629 0.9127172281 0.8722056016 0.8173723833 0.7491179331 0.6685629871 0.5770302553 0.4760227027 0.3671988705 0.2523456429 0.1333489069 0.01216258554 -0.1092234452 -0.2288160299 -0.3446514618 -0.4548277261 -0.5575357318 
          -0.5801735876 -0.6775254551 -0.7637523732 -0.8374384985 -0.8973739069 -0.9425744604 -0.9722979674 -0.9860563687 -0.9836237516 -0.9650400598 -0.9306104368 -0.8809002162 -0.8167256384 -0.7391404482 -0.6494185922 -0.549033301 -0.4396328981 -0.3230137352 -0.2010906956 -0.07586575245 0.05060490429 0.1762446299 0.2989904236 0.4168268027 0.5278188973 0.6301442202 0.7221225925 0.8022437317 0.869192051 0.9218682609 0.9594074194 0.9811931346 0.9868676857 0.9763378966 0.9497766663 0.9076201294 0.8505604951 0.7795346809 0.6957089288 0.6004596554 0.495350851 0.3821083993 0.2625917383 0.1387633282 0.01265642807 -0.1136582902 -0.2381067426 -0.3586454888 -0.473295286 -0.5801735876 
          -0.5877852523 -0.6864143405 -0.7737725242 -0.8484253844 -0.9091471233 -0.9549406916 -0.9850541601 -0.9989930665 -0.9965285344 -0.9777010314 -0.9428197044 -0.8924573039 -0.8274407792 -0.7488376997 -0.6579387259 -0.5562364165 -0.4454007204 -0.3272515569 -0.2037289318 -0.07686108329 0.05126882207 0.1785568948 0.3029130682 0.4222954175 0.5347436877 0.6384114812 0.731596576 0.8127688751 0.8805955319 0.9339628343 0.9719944928 0.9940660286 0.9998150277 0.9891470917 0.9622373878 0.9195277726 0.8617195367 0.7897618899 0.7048363748 0.6083374658 0.5018496724 0.3871215213 0.2660368456 0.1405838521 0.01282247576 -0.1151494453 -0.2412306157 -0.363350786 -0.4795047465 -0.5877852523
          
        </DataArray>
      </PointData>
    </Piece>
  </ImageData>
</VTKFile>
