<?xml version="1.0"?>
<VTKFile type="ImageData" version="0.1" byte_order="LittleEndian">
  <ImageData WholeExtent="0 49 0 39 0 0" Origin="0.0 0.0 0.0" Spacing="1.0 1.0 1.0">
    <Piece Extent="0 49 0 39 0 0">
      <PointData Scalars="wave">
        <DataArray type="Float64" Name="wave" NumberOfComponents="1" format="ascii">
          -0.9510565163 -0.9037321393 -0.8415685055 -0.7655863402 -0.6770332683 -0.5773633289 -0.4682130996 -0.3513748241 -0.2287669837 -0.1024027958 0.02564284322 0.1532674274 0.2783753647 0.3989123863 0.5128992774 0.6184643766 0.7138743078 0.7975624427 0.8681546243 0.9244917309 0.9656487089 0.9909497618 0.999979447 0.9925894973 0.9689012555 0.9293036819 0.8744469675 0.8052318581 0.7227948638 0.6284895979 0.5238645501 0.4106376609 0.2906681127 0.1659258021 0.03845899441 -0.0896393089 -0.2162657372 -0.3393410882 -0.4568444678 -0.5668464739 -0.6675408765 -0.7572742765 -0.8345732537 -0.8981685612 -0.9470159658 -0.9803133943 -0.9975141041 -0.9983356598 -0.9827645716 -0.9510565163 
          -0.9387405842 -0.8920290454 -0.8306704144 -0.7556721982 -0.6682658653 -0.5698866254 -0.4621498629 -0.3468246124 -0.2258045113 -0.1010767065 0.02531077513 0.1512826545 0.2747704769 0.3937465756 0.5062573665 0.6104554254 0.704629823 0.7872342185 0.8569122499 0.9125198058 0.9531438117 0.9781172226 0.9870299758 0.979735724 0.9563542387 0.9172694433 0.8631231089 0.794804317 0.7134348602 0.6203508227 0.5170806418 0.4053200111 0.286904037 0.1637771065 0.03796096053 -0.0884785034 -0.2134651527 -0.3349467102 -0.4509284519 -0.5595059609 -0.6588963975 -0.7474677735 -0.8237657493 -0.8865375142 -0.9347523577 -0.9676185933 -0.9845965584 -0.9854074752 -0.9700380285 -0.9387405842 
          -0.9021117641 -0.8572228679 -0.7982583959 -0.7261865431 -0.6421907274 -0.5476501577 -0.4441171875 -0.3332918254 -0.2169938208 -0.09713278356 0.02432317127 0.1453797403 0.264049178 0.3783829355 0.4865036557 0.5866359993 0.677135796 0.7565170416 0.8234762983 0.876914097 0.9159529905 0.9399519612 0.9485169466 0.9415073101 0.9190381495 0.8814784079 0.8294448152 0.7637917616 0.6855972684 0.596145287 0.4969046164 0.3895047858 0.2757092974 0.15738667 0.03647975772 -0.08502615113 -0.2051359329 -0.3218773884 -0.433333626 -0.5376745375 -0.6331868479 -0.7183022478 -0.7916231446 -0.8519456113 -0.8982791546 -0.9298629791 -0.9461784791 -0.9469577546 -0.93218801 -0.9021117641 
          -0.8421187231 -0.8002150683 -0.7451719042 -0.6778930381 -0.599483187 -0.5112298386 -0.4145821103 -0.3111269552 -0.2025631042 -0.09067317257 0.02270561004 0.1357115672 0.2464891441 0.3532193761 0.4541497557 0.5476230089 0.6321043074 0.7062064707 0.7687127432 0.8185967738 0.8550394679 0.8774424377 0.8854378268 0.8788943514 0.8579194549 0.8228575448 0.7742843365 0.7129974008 0.6400030675 0.5564999015 0.4638590225 0.3636015912 0.2573738319 0.1469200013 0.03405374834 -0.0793716662 -0.1914938002 -0.3004716113 -0.4045156868 -0.5019176259 -0.5910780915 -0.6705330712 -0.7389779164 -0.7952887646 -0.8385409933 -0.868024402 -0.8832548741 -0.8839823256 -0.8701948117 -0.8421187231 
          -0.7603152495 -0.7224821188 -0.6727858517 -0.6120424594 -0.5412493469 -0.4615689351 -0.3743095742 -0.2809040604 -0.1828861096 -0.08186517404 0.02049998544 0.1225285357 0.2225451709 0.3189076204 0.4100336157 0.4944268703 0.5707016494 0.6376055232 0.6940399319 0.7390782241 0.7719808723 0.7922076159 0.7994263324 0.7935184906 0.7745810972 0.7429251035 0.6990703001 0.6437367818 0.5778331233 0.5024414609 0.4187997236 0.3282813064 0.2323725193 0.1326481818 0.03074576477 -0.07166149682 -0.1728920786 -0.2712837773 -0.3652210038 -0.4531613115 -0.533660723 -0.6053974402 -0.6671935482 -0.7180343566 -0.7570850607 -0.783704449 -0.7974554319 -0.7981122187 -0.7856640249 -0.7603152495 
          -0.6588200104 -0.6260372619 -0.5829749989 -0.5303403026 -0.4689974331 -0.3999536387 -0.3243426167 -0.2434058979 -0.1584724609 -0.07093691051 0.01776342199 0.1061720796 0.1928373946 0.2763363249 0.3552978204 0.4284253355 0.4945181184 0.5524909275 0.6013918508 0.6404179366 0.6689283776 0.6864550331 0.6927101159 0.6875909178 0.6711814958 0.6437512922 0.6057507102 0.5578037183 0.5006976048 0.4353700504 0.3628937318 0.2844587082 0.2013528805 0.114940844 0.02664148204 -0.06209533231 -0.149812543 -0.2350698359 -0.3164672886 -0.3926683572 -0.4624218221 -0.5245823336 -0.5781292176 -0.6221832359 -0.6560210226 -0.6790869623 -0.6910023129 -0.6915714245 -0.6807849525 -0.6588200104 
          -0.5402616791 -0.5133783688 -0.4780654 -0.4349026104 -0.3845987321 -0.3279797532 -0.2659753558 -0.1996036504 -0.1299544587 -0.05817141825 0.01456679524 0.08706582235 0.1581352311 0.2266080637 0.2913599981 0.3513278095 0.4055268279 0.453067107 0.4931680367 0.525171161 0.5485509892 0.5629236254 0.5680530713 0.5638551014 0.5503986463 0.5279046607 0.4967424951 0.4574238315 0.4105942813 0.3570227842 0.297588983 0.2332687789 0.1651183078 0.09425659875 0.02184719892 -0.05092093131 -0.1228529413 -0.1927677093 -0.2595172369 -0.3220054986 -0.379206439 -0.4301808201 -0.474091644 -0.5102178962 -0.5379663847 -0.5568814801 -0.5666525969 -0.5671192937 -0.5582739075 -0.5402616791 
          -0.407710854 -0.3874232456 -0.3607741582 -0.3282011692 -0.290239126 -0.2475113643 -0.2007194729 -0.1506317733 -0.09807070421 -0.04389931682 0.01099289614 0.06570460605 0.1193374481 0.1710107726 0.219876105 0.2651310777 0.3060326055 0.3419090864 0.3721714296 0.3963227281 0.4139664184 0.4248127916 0.4286837505 0.425515734 0.415360761 0.3983855757 0.3748689103 0.3451969078 0.3098567815 0.2694288155 0.2245768358 0.1760373107 0.1246072578 0.0711311571 0.01648708482 -0.03842770494 -0.09271151284 -0.1454730003 -0.1958458251 -0.2430028668 -0.2861698082 -0.3246378493 -0.3577753458 -0.3850381811 -0.4059787001 -0.42025306 -0.4276268763 -0.4279790711 -0.4213038615 -0.407710854 
          -0.264600532 -0.2514340639 -0.2341390553 -0.21299949 -0.1883624789 -0.1606325611 -0.1302650611 -0.09775861244 -0.06364697003 -0.02849024614 0.007134286808 0.04264167496 0.077448888 0.1109843924 0.1426975362 0.1720675904 0.1986122995 0.2218958001 0.2415357778 0.2572097448 0.2686603348 0.2756995296 0.2782117457 0.2761557326 0.2695652501 0.2585485136 0.2432864176 0.2240295654 0.2010941539 0.174856782 0.1457482666 0.1142465686 0.08086894516 0.04616345586 0.01069996389 -0.02493922119 -0.06016890495 -0.09441061695 -0.1271021092 -0.1577065884 -0.1857215297 -0.2106869287 -0.2321928541 -0.2498861793 -0.2634763803 -0.2727403064 -0.2775258443 -0.2777544154 -0.2734222667 -0.264600532 
          -0.1146371952 -0.1089328719 -0.1014398739 -0.0922812359 -0.08160734259 -0.06959345897 -0.05643685267 -0.04235355482 -0.02757481277 -0.01234329305 0.003090903194 0.0184743469 0.03355444233 0.04808357475 0.0618231762 0.07454764281 0.08604803919 0.09613552914 0.1046444764 0.1114351642 0.1163960897 0.1194457946 0.1205342029 0.1196434429 0.1167881408 0.1120151808 0.1054029345 0.09705997501 0.08712329339 0.0757560497 0.06314489378 0.04949690044 0.03503616936 0.02000014535 0.004635719512 -0.01080482472 -0.02606795402 -0.04090304824 -0.05506651554 -0.06832579218 -0.08046316119 -0.09127932733 -0.1005966894 -0.1082622567 -0.1141501607 -0.1181637222 -0.1202370386 -0.1203360662 -0.1184591789 -0.1146371952 
          0.03829518473 0.0363896242 0.03388654704 0.03082705372 0.02726138103 0.02324807722 0.01885304063 0.01414843762 0.009211517665 0.004123344842 -0.001032533189 -0.006171457054 -0.01120904576 -0.01606258225 -0.02065237159 -0.02490304955 -0.02874482013 -0.03211460155 -0.03495706211 -0.03722552867 -0.03888275308 -0.03990152376 -0.04026511252 -0.03996754925 -0.03901371993 -0.0374192864 -0.03521042922 -0.03242341777 -0.0291040147 -0.02530672451 -0.0210938986 -0.01653471146 -0.01170402482 -0.00668115841 -0.001548587566 0.003609411044 0.008708143224 0.01366388793 0.01839527198 0.02282460617 0.02687916096 0.03049236066 0.03360487665 0.03616560149 0.03813248816 0.03947324042 0.04016584317 0.04019892389 0.03957193938 0.03829518473 
          0.1902357395 0.1807696481 0.1683353242 0.1531369388 0.1354240492 0.1154875004 0.09365465007 0.07028399296 0.04575927463 0.02048319027 -0.005129227505 -0.03065742351 -0.05568222546 -0.07979272682 -0.1025930338 -0.123708766 -0.1427932037 -0.1595329809 -0.173653231 -0.1849220999 -0.1931545529 -0.1982154136 -0.2000215826 -0.1985434028 -0.1938051458 -0.1858846137 -0.1749118613 -0.1610670611 -0.1445775441 -0.1257140678 -0.1047863701 -0.08213808302 -0.0581410909 -0.03318942368 -0.007692787039 0.01793016495 0.04325870413 0.06787693659 0.09138063162 0.1133838592 0.133525327 0.1514743125 0.1669360941 0.1796567896 0.1894275256 0.1960878668 0.1995284507 0.199692783 0.1965781653 0.1902357395 
          0.3372492885 0.3204678332 0.2984243048 0.2714806577 0.2400793056 0.204735858 0.1660306533 0.1245992298 0.08112189042 0.03631253183 -0.009093077523 -0.05434937879 -0.09871326477 -0.1414562817 -0.1818765903 -0.2193104904 -0.2531433183 -0.2828195399 -0.3078518725 -0.3278292858 -0.3424237513 -0.3513956283 -0.3545975988 -0.3519770866 -0.3435771203 -0.3295356271 -0.3100831681 -0.2855391521 -0.256306591 -0.2228654829 -0.1857649296 -0.1456141214 -0.1030723333 -0.05883810031 -0.01363774737 0.03178653701 0.07668888733 0.1203320082 0.1619992809 0.2010065298 0.2367132571 0.2685331593 0.2959437544 0.3184949612 0.3358164896 0.3476239205 0.3537233762 0.3540147039 0.3484931199 0.3372492885 
          0.4755282581 0.4518660696 0.4207842528 0.3827931701 0.3385166342 0.2886816644 0.2341065498 0.175687412 0.1143834919 0.05120139789 -0.01282142161 -0.07663371372 -0.1391876824 -0.1994561931 -0.2564496387 -0.3092321883 -0.3569371539 -0.3987812213 -0.4340773121 -0.4622458655 -0.4828243544 -0.4954748809 -0.4999897235 -0.4962947486 -0.4844506277 -0.4646518409 -0.4372234837 -0.402615929 -0.3613974319 -0.3142447989 -0.2619322751 -0.2053188305 -0.1453340564 -0.08296290105 -0.01922949721 0.04481965445 0.1081328686 0.1696705441 0.2284222339 0.2834232369 0.3337704383 0.3786371382 0.4172866269 0.4490842806 0.4735079829 0.4901566972 0.498757052 0.4991678299 0.4913822858 0.4755282581 
          0.6014912957 0.5715612123 0.5322461096 0.4841915405 0.4281865597 0.3651507674 0.2961192096 0.2222253826 0.1446826209 0.06476417464 -0.01621769761 -0.09693327571 -0.1760572121 -0.252290294 -0.3243807761 -0.391144935 -0.4514865047 -0.5044146786 -0.5490603774 -0.58469052 -0.6107200604 -0.6267215943 -0.6324323769 -0.6277586374 -0.6127771184 -0.5877338161 -0.5530399408 -0.5092651649 -0.4571282691 -0.3974853398 -0.3313157122 -0.2597058897 -0.1838317037 -0.1049390062 -0.02432321316 0.05669196639 0.1367762654 0.214614702 0.288929171 0.3584994311 0.4221831404 0.4789346142 0.5278219949 0.568042553 0.5989358682 0.6199946729 0.6308731822 0.6313927713 0.6215449086 0.6014912957 
          0.7118760246 0.6764532197 0.6299230717 0.5730496043 0.5067666782 0.4321626573 0.3504625375 0.2630078325 0.1712345461 0.07664959329 -0.01919394376 -0.1147223168 -0.2083669525 -0.2985902087 -0.3839106219 -0.4629272333 -0.5343425923 -0.5969840607 -0.6498230673 -0.6919919972 -0.7227984376 -0.7417365476 -0.748495364 -0.7429639072 -0.7252330037 -0.6955937942 -0.6545329539 -0.6027247005 -0.5410197243 -0.4704312191 -0.3921182464 -0.3073667028 -0.2175682065 -0.1241972463 -0.02878697068 0.06709598617 0.1618772288 0.2540004518 0.3419529944 0.4242906783 0.4996615209 0.5668279353 0.6246870505 0.6722888217 0.7088516291 0.7337751122 0.7466500284 0.7472649716 0.7356098448 0.7118760246 
          0.8038235384 0.7638254441 0.7112853572 0.6470659844 0.572221806 0.4879817613 0.3957290697 0.2969785176 0.1933515865 0.08654982773 -0.02167307685 -0.1295401101 -0.2352800983 -0.3371567939 -0.4334973841 -0.5227199594 -0.6033594873 -0.6740918692 -0.7337556811 -0.7813712451 -0.8161567149 -0.8375409139 -0.8451727143 -0.8389268021 -0.818905735 -0.7854382584 -0.7390739073 -0.680573983 -0.6108990528 -0.531193177 -0.4427651239 -0.3470668798 -0.245669807 -0.1402388429 -0.03250516078 0.07576225516 0.182785657 0.2868077233 0.3861204148 0.4790930197 0.5641989306 0.6400407105 0.7053730397 0.7591231631 0.8004085051 0.8285511616 0.843089031 0.8437834017 0.8306228723 0.8038235384 
          0.8749524447 0.8314149907 0.7742257255 0.7043236953 0.6228566895 0.5311623941 0.4307464268 0.3232576152 0.2104609224 0.09420846709 -0.02359088864 -0.1410028826 -0.2560996132 -0.3669911952 -0.4718567919 -0.5689745131 -0.6567496886 -0.7337410523 -0.7986844082 -0.8505133883 -0.888376962 -0.9116534105 -0.9199605353 -0.9131619335 -0.891369238 -0.8549402842 -0.8044732347 -0.7407967568 -0.6649564167 -0.5781975106 -0.4819446174 -0.3777782069 -0.2674086886 -0.1526483271 -0.03538148428 0.08246632153 0.1989600326 0.3121868255 0.4202875193 0.5214871037 0.6141238842 0.6966767676 0.7677902377 0.8262966133 0.8712352213 0.9018681711 0.9176924705 0.9184482849 0.9041232038 0.8749524447 
          0.9234205424 0.8774713258 0.8171140543 0.7433397926 0.657359912 0.5605861999 0.4546076778 0.3411645103 0.2221194309 0.09942715665 -0.0248977088 -0.1488137546 -0.2702862826 -0.3873207173 -0.4979953566 -0.6004929258 -0.6931304179 -0.7743867276 -0.8429276287 -0.8976276814 -0.9375887124 -0.9621545627 -0.9709218616 -0.9637466504 -0.9407467459 -0.9022998058 -0.8490371279 -0.7818332837 -0.7017917587 -0.6102268324 -0.5086419984 -0.3987052768 -0.2822218256 -0.1611042998 -0.03734144593 0.0870345535 0.209981448 0.3294804529 0.4435693978 0.5503749456 0.6481433519 0.7352692623 0.8103220717 0.8720694152 0.9194974029 0.9518272687 0.9685281571 0.9693258399 0.9542072192 0.9234205424 
          0.9479725331 0.9008016144 0.8388395582 0.7631037796 0.674837858 0.5754911175 0.4666948288 0.3502354238 0.2280251629 0.1020707351 -0.02555969138 -0.1527704284 -0.2774726792 -0.3976188363 -0.5112361031 -0.6164588872 -0.7115594334 -0.7949761934 -0.8653394663 -0.9214938891 -0.9625174077 -0.987736417 -0.9967368217 -0.9893708354 -0.9657594073 -0.9262902364 -0.8716114054 -0.8026207393 -0.7204510628 -0.6264515998 -0.5221658188 -0.4093060895 -0.2897255656 -0.1653877559 -0.03833428374 0.08934863625 0.2155644541 0.3382407096 0.4553630619 0.5650083654 0.6653762472 0.7548186693 0.8318669898 0.8952560773 0.9439450848 0.9771345401 0.9942794732 0.9950983649 0.9795777689 0.9479725331 
          0.9479725331 0.9008016144 0.8388395582 0.7631037796 0.674837858 0.5754911175 0.4666948288 0.3502354238 0.2280251629 0.1020707351 -0.02555969138 -0.1527704284 -0.2774726792 -0.3976188363 -0.5112361031 -0.6164588872 -0.7115594334 -0.7949761934 -0.8653394663 -0.9214938891 -0.9625174077 -0.987736417 -0.9967368217 -0.9893708354 -0.9657594073 -0.9262902364 -0.8716114054 -0.8026207393 -0.7204510628 -0.6264515998 -0.5221658188 -0.4093060895 -0.2897255656 -0.1653877559 -0.03833428374 0.08934863625 0.2155644541 0.3382407096 0.4553630619 0.5650083654 0.6653762472 0.7548186693 0.8318669898 0.8952560773 0.9439450848 0.9771345401 0.9942794732 0.9950983649 0.9795777689 0.9479725331 
          0.9234205424 0.8774713258 0.8171140543 0.7433397926 0.657359912 0.5605861999 0.4546076778 0.3411645103 0.2221194309 0.09942715665 -0.0248977088 -0.1488137546 -0.2702862826 -0.3873207173 -0.4979953566 -0.6004929258 -0.6931304179 -0.7743867276 -0.8429276287 -0.8976276814 -0.9375887124 -0.9621545627 -0.9709218616 -0.9637466504 -0.9407467459 -0.9022998058 -0.8490371279 -0.7818332837 -0.7017917587 -0.6102268324 -0.5086419984 -0.3987052768 -0.2822218256 -0.1611042998 -0.03734144593 0.0870345535 0.209981448 0.3294804529 0.4435693978 0.5503749456 0.6481433519 0.7352692623 0.8103220717 0.8720694152 0.9194974029 0.9518272687 0.9685281571 0.9693258399 0.9542072192 0.9234205424 
          0.8749524447 0.8314149907 0.7742257255 0.7043236953 0.6228566895 0.5311623941 0.4307464268 0.3232576152 0.2104609224 0.09420846709 -0.02359088864 -0.1410028826 -0.2560996132 -0.3669911952 -0.4718567919 -0.5689745131 -0.6567496886 -0.7337410523 -0.7986844082 -0.8505133883 -0.888376962 -0.9116534105 -0.9199605353 -0.9131619335 -0.891369238 -0.8549402842 -0.8044732347 -0.7407967568 -0.6649564167 -0.5781975106 -0.4819446174 -0.3777782069 -0.2674086886 -0.1526483271 -0.03538148428 0.08246632153 0.1989600326 0.3121868255 0.4202875193 0.5214871037 0.6141238842 0.6966767676 0.7677902377 0.8262966133 0.8712352213 0.9018681711 0.9176924705 0.9184482849 0.9041232038 0.8749524447 
          0.8038235384 0.7638254441 0.7112853572 0.6470659844 0.572221806 0.4879817613 0.3957290697 0.2969785176 0.1933515865 0.08654982773 -0.02167307685 -0.1295401101 -0.2352800983 -0.3371567939 -0.4334973841 -0.5227199594 -0.6033594873 -0.6740918692 -0.7337556811 -0.7813712451 -0.8161567149 -0.8375409139 -0.8451727143 -0.8389268021 -0.818905735 -0.7854382584 -0.7390739073 -0.680573983 -0.6108990528 -0.531193177 -0.4427651239 -0.3470668798 -0.245669807 -0.1402388429 -0.03250516078 0.07576225516 0.182785657 0.2868077233 0.3861204148 0.4790930197 0.5641989306 0.6400407105 0.7053730397 0.7591231631 0.8004085051 0.8285511616 0.843089031 0.8437834017 0.8306228723 0.8038235384 
          0.7118760246 0.6764532197 0.6299230717 0.5730496043 0.5067666782 0.4321626573 0.3504625375 0.2630078325 0.1712345461 0.07664959329 -0.01919394376 -0.1147223168 -0.2083669525 -0.2985902087 -0.3839106219 -0.4629272333 -0.5343425923 -0.5969840607 -0.6498230673 -0.6919919972 -0.7227984376 -0.7417365476 -0.748495364 -0.7429639072 -0.7252330037 -0.6955937942 -0.6545329539 -0.6027247005 -0.5410197243 -0.4704312191 -0.3921182464 -0.3073667028 -0.2175682065 -0.1241972463 -0.02878697068 0.06709598617 0.1618772288 0.2540004518 0.3419529944 0.4242906783 0.4996615209 0.5668279353 0.6246870505 0.6722888217 0.7088516291 0.7337751122 0.7466500284 0.7472649716 0.7356098448 0.7118760246 
          0.6014912957 0.5715612123 0.5322461096 0.4841915405 0.4281865597 0.3651507674 0.2961192096 0.2222253826 0.1446826209 0.06476417464 -0.01621769761 -0.09693327571 -0.1760572121 -0.252290294 -0.3243807761 -0.391144935 -0.4514865047 -0.5044146786 -0.5490603774 -0.58469052 -0.6107200604 -0.6267215943 -0.6324323769 -0.6277586374 -0.6127771184 -0.5877338161 -0.5530399408 -0.5092651649 -0.4571282691 -0.3974853398 -0.3313157122 -0.2597058897 -0.1838317037 -0.1049390062 -0.02432321316 0.05669196639 0.1367762654 0.214614702 0.288929171 0.3584994311 0.4221831404 0.4789346142 0.5278219949 0.568042553 0.5989358682 0.6199946729 0.6308731822 0.6313927713 0.6215449086 0.6014912957 
          0.4755282581 0.4518660696 0.4207842528 0.3827931701 0.3385166342 0.2886816644 0.2341065498 0.175687412 0.1143834919 0.05120139789 -0.01282142161 -0.07663371372 -0.1391876824 -0.1994561931 -0.2564496387 -0.3092321883 -0.3569371539 -0.3987812213 -0.4340773121 -0.4622458655 -0.4828243544 -0.4954748809 -0.4999897235 -0.4962947486 -0.4844506277 -0.4646518409 -0.4372234837 -0.402615929 -0.3613974319 -0.3142447989 -0.2619322751 -0.2053188305 -0.1453340564 -0.08296290105 -0.01922949721 0.04481965445 0.1081328686 0.1696705441 0.2284222339 0.2834232369 0.3337704383 0.3786371382 0.4172866269 0.4490842806 0.4735079829 0.4901566972 0.498757052 0.4991678299 0.4913822858 0.4755282581 
          0.3372492885 0.3204678332 0.2984243048 0.2714806577 0.2400793056 0.204735858 0.1660306533 0.1245992298 0.08112189042 0.03631253183 -0.009093077523 -0.05434937879 -0.09871326477 -0.1414562817 -0.1818765903 -0.2193104904 -0.2531433183 -0.2828195399 -0.3078518725 -0.3278292858 -0.3424237513 -0.3513956283 -0.3545975988 -0.3519770866 -0.3435771203 -0.3295356271 -0.3100831681 -0.2855391521 -0.256306591 -0.2228654829 -0.1857649296 -0.1456141214 -0.1030723333 -0.05883810031 -0.01363774737 0.03178653701 0.07668888733 0.1203320082 0.1619992809 0.2010065298 0.2367132571 0.2685331593 0.2959437544 0.3184949612 0.3358164896 0.3476239205 0.3537233762 0.3540147039 0.3484931199 0.3372492885 
          0.1902357395 0.1807696481 0.1683353242 0.1531369388 0.1354240492 0.1154875004 0.09365465007 0.07028399296 0.04575927463 0.02048319027 -0.005129227505 -0.03065742351 -0.05568222546 -0.07979272682 -0.1025930338 -0.123708766 -0.1427932037 -0.1595329809 -0.173653231 -0.1849220999 -0.1931545529 -0.1982154136 -0.2000215826 -0.1985434028 -0.1938051458 -0.1858846137 -0.1749118613 -0.1610670611 -0.1445775441 -0.1257140678 -0.1047863701 -0.08213808302 -0.0581410909 -0.03318942368 -0.007692787039 0.01793016495 0.04325870413 0.06787693659 0.09138063162 0.1133838592 0.133525327 0.1514743125 0.1669360941 0.1796567896 0.1894275256 0.1960878668 0.1995284507 0.199692783 0.1965781653 0.1902357395 
          0.03829518473 0.0363896242 0.03388654704 0.03082705372 0.02726138103 0.02324807722 0.01885304063 0.01414843762 0.009211517665 0.004123344842 -0.001032533189 -0.006171457054 -0.01120904576 -0.01606258225 -0.02065237159 -0.02490304955 -0.02874482013 -0.03211460155 -0.03495706211 -0.03722552867 -0.03888275308 -0.03990152376 -0.04026511252 -0.03996754925 -0.03901371993 -0.0374192864 -0.03521042922 -0.03242341777 -0.0291040147 -0.02530672451 -0.0210938986 -0.01653471146 -0.01170402482 -0.00668115841 -0.001548587566 0.003609411044 0.008708143224 0.01366388793 0.01839527198 0.02282460617 0.02687916096 0.03049236066 0.03360487665 0.03616560149 0.03813248816 0.03947324042 0.04016584317 0.04019892389 0.03957193938 0.03829518473 
          -0.1146371952 -0.1089328719 -0.1014398739 -0.0922812359 -0.08160734259 -0.06959345897 -0.05643685267 -0.04235355482 -0.02757481277 -0.01234329305 0.003090903194 0.0184743469 0.03355444233 0.04808357475 0.0618231762 0.07454764281 0.08604803919 0.09613552914 0.1046444764 0.1114351642 0.1163960897 0.1194457946 0.1205342029 0.1196434429 0.1167881408 0.1120151808 0.1054029345 0.09705997501 0.08712329339 0.0757560497 0.06314489378 0.04949690044 0.03503616936 0.02000014535 0.004635719512 -0.01080482472 -0.02606795402 -0.04090304824 -0.05506651554 -0.06832579218 -0.08046316119 -0.09127932733 -0.1005966894 -0.1082622567 -0.1141501607 -0.1181637222 -0.1202370386 -0.1203360662 -0.1184591789 -0.1146371952 
          -0.264600532 -0.2514340639 -0.2341390553 -0.21299949 -0.1883624789 -0.1606325611 -0.1302650611 -0.09775861244 -0.06364697003 -0.02849024614 0.007134286808 0.04264167496 0.077448888 0.1109843924 0.1426975362 0.1720675904 0.1986122995 0.2218958001 0.2415357778 0.2572097448 0.2686603348 0.2756995296 0.2782117457 0.2761557326 0.2695652501 0.2585485136 0.2432864176 0.2240295654 0.2010941539 0.174856782 0.1457482666 0.1142465686 0.08086894516 0.04616345586 0.01069996389 -0.02493922119 -0.06016890495 -0.09441061695 -0.1271021092 -0.1577065884 -0.1857215297 -0.2106869287 -0.2321928541 -0.2498861793 -0.2634763803 -0.2727403064 -0.2775258443 -0.2777544154 -0.2734222667 -0.264600532 
          -0.407710854 -0.3874232456 -0.3607741582 -0.3282011692 -0.290239126 -0.2475113643 -0.2007194729 -0.1506317733 -0.09807070421 -0.04389931682 0.01099289614 0.06570460605 0.1193374481 0.1710107726 0.219876105 0.2651310777 0.3060326055 0.3419090864 0.3721714296 0.3963227281 0.4139664184 0.4248127916 0.4286837505 0.425515734 0.415360761 0.3983855757 0.3748689103 0.3451969078 0.3098567815 0.2694288155 0.2245768358 0.1760373107 0.1246072578 0.0711311571 0.01648708482 -0.03842770494 -0.09271151284 -0.1454730003 -0.1958458251 -0.2430028668 -0.2861698082 -0.3246378493 -0.3577753458 -0.3850381811 -0.4059787001 -0.42025306 -0.4276268763 -0.4279790711 -0.4213038615 -0.407710854 
          -0.5402616791 -0.5133783688 -0.4780654 -0.4349026104 -0.3845987321 -0.3279797532 -0.2659753558 -0.1996036504 -0.1299544587 -0.05817141825 0.01456679524 0.08706582235 0.1581352311 0.2266080637 0.2913599981 0.3513278095 0.4055268279 0.453067107 0.4931680367 0.525171161 0.5485509892 0.5629236254 0.5680530713 0.5638551014 0.5503986463 0.5279046607 0.4967424951 0.4574238315 0.4105942813 0.3570227842 0.297588983 0.2332687789 0.1651183078 0.09425659875 0.02184719892 -0.05092093131 -0.1228529413 -0.1927677093 -0.2595172369 -0.3220054986 -0.379206439 -0.4301808201 -0.474091644 -0.5102178962 -0.5379663847 -0.5568814801 -0.5666525969 -0.5671192937 -0.5582739075 -0.5402616791 
          -0.6588200104 -0.6260372619 -0.5829749989 -0.5303403026 -0.4689974331 -0.3999536387 -0.3243426167 -0.2434058979 -0.1584724609 -0.07093691051 0.01776342199 0.1061720796 0.1928373946 0.2763363249 0.3552978204 0.4284253355 0.4945181184 0.5524909275 0.6013918508 0.6404179366 0.6689283776 0.6864550331 0.6927101159 0.6875909178 0.6711814958 0.6437512922 0.6057507102 0.5578037183 0.5006976048 0.4353700504 0.3628937318 0.2844587082 0.2013528805 0.114940844 0.02664148204 -0.06209533231 -0.149812543 -0.2350698359 -0.3164672886 -0.3926683572 -0.4624218221 -0.5245823336 -0.5781292176 -0.6221832359 -0.6560210226 -0.6790869623 -0.6910023129 -0.6915714245 -0.6807849525 -0.6588200104 
          -0.7603152495 -0.7224821188 -0.6727858517 -0.6120424594 -0.5412493469 -0.4615689351 -0.3743095742 -0.2809040604 -0.1828861096 -0.08186517404 0.02049998544 0.1225285357 0.2225451709 0.3189076204 0.4100336157 0.4944268703 0.5707016494 0.6376055232 0.6940399319 0.7390782241 0.7719808723 0.7922076159 0.7994263324 0.7935184906 0.7745810972 0.7429251035 0.6990703001 0.6437367818 0.5778331233 0.5024414609 0.4187997236 0.3282813064 0.2323725193 0.1326481818 0.03074576477 -0.07166149682 -0.1728920786 -0.2712837773 -0.3652210038 -0.4531613115 -0.533660723 -0.6053974402 -0.6671935482 -0.7180343566 -0.7570850607 -0.783704449 -0.7974554319 -0.7981122187 -0.7856640249 -0.7603152495 
          -0.8421187231 -0.8002150683 -0.7451719042 -0.6778930381 -0.599483187 -0.5112298386 -0.4145821103 -0.3111269552 -0.2025631042 -0.09067317257 0.02270561004 0.1357115672 0.2464891441 0.3532193761 0.4541497557 0.5476230089 0.6321043074 0.7062064707 0.7687127432 0.8185967738 0.8550394679 0.8774424377 0.8854378268 0.8788943514 0.8579194549 0.8228575448 0.7742843365 0.7129974008 0.6400030675 0.5564999015 0.4638590225 0.3636015912 0.2573738319 0.1469200013 0.03405374834 -0.0793716662 -0.1914938002 -0.3004716113 -0.4045156868 -0.5019176259 -0.5910780915 -0.6705330712 -0.7389779164 -0.7952887646 -0.8385409933 -0.868024402 -0.8832548741 -0.8839823256 -0.8701948117 -0.8421187231 
          -0.9021117641 -0.8572228679 -0.7982583959 -0.7261865431 -0.6421907274 -0.5476501577 -0.4441171875 -0.3332918254 -0.2169938208 -0.09713278356 0.02432317127 0.1453797403 0.264049178 0.3783829355 0.4865036557 0.5866359993 0.677135796 0.7565170416 0.8234762983 0.876914097 0.9159529905 0.9399519612 0.9485169466 0.9415073101 0.9190381495 0.8814784079 0.8294448152 0.7637917616 0.6855972684 0.596145287 0.4969046164 0.3895047858 0.2757092974 0.15738667 0.03647975772 -0.08502615113 -0.2051359329 -0.3218773884 -0.433333626 -0.5376745375 -0.6331868479 -0.7183022478 -0.7916231446 -0.8519456113 -0.8982791546 -0.9298629791 -0.9461784791 -0.9469577546 -0.93218801 -0.9021117641 
          -0.9387405842 -0.8920290454 -0.8306704144 -0.7556721982 -0.6682658653 -0.5698866254 -0.4621498629 -0.3468246124 -0.2258045113 -0.1010767065 0.02531077513 0.1512826545 0.2747704769 0.3937465756 0.5062573665 0.6104554254 0.704629823 0.7872342185 0.8569122499 0.9125198058 0.9531438117 0.9781172226 0.9870299758 0.979735724 0.9563542387 0.9172694433 0.8631231089 0.794804317 0.7134348602 0.6203508227 0.5170806418 0.4053200111 0.286904037 0.1637771065 0.03796096053 -0.0884785034 -0.2134651527 -0.3349467102 -0.4509284519 -0.5595059609 -0.6588963975 -0.7474677735 -0.8237657493 -0.8865375142 -0.9347523577 -0.9676185933 -0.9845965584 -0.9854074752 -0.9700380285 -0.9387405842 
          -0.9510565163 -0.9037321393 -0.8415685055 -0.7655863402 -0.6770332683 -0.5773633289 -0.4682130996 -0.3513748241 -0.2287669837 -0.1024027958 0.02564284322 0.1532674274 0.2783753647 0.3989123863 0.5128992774 0.6184643766 0.7138743078 0.7975624427 0.8681546243 0.9244917309 0.9656487089 0.9909497618 0.999979447 0.9925894973 0.9689012555 0.9293036819 0.8744469675 0.8052318581 0.7227948638 0.6284895979 0.5238645501 0.4106376609 0.2906681127 0.1659258021 0.03845899441 -0.0896393089 -0.2162657372 -0.3393410882 -0.4568444678 -0.5668464739 -0.6675408765 -0.7572742765 -0.8345732537 -0.8981685612 -0.9470159658 -0.9803133943 -0.9975141041 -0.9983356598 -0.9827645716 -0.9510565163
          
        </DataArray>
      </PointData>
    </Piece>
  </ImageData>
</VTKFile>
